          ******************************************************
          *         GAMESS VERSION =  1 OCT 2010 (R1)          *
          *             FROM IOWA STATE UNIVERSITY             *
          * M.W.SCHMIDT, K.K.BALDRIDGE, J.A.BOATZ, S.T.ELBERT, *
          *   M.S.GORDON, J.H.JENSEN, S.KOSEKI, N.MATSUNAGA,   *
          *          K.A.NGUYEN, S.J.SU, T.L.WINDUS,           *
          *       TOGETHER WITH M.DUPUIS, J.A.MONTGOMERY       *
          *         J.COMPUT.CHEM.  14, 1347-1363(1993)        *
          **************** 32 BIT LINUX VERSION ****************

  SINCE 1993, STUDENTS AND POSTDOCS WORKING AT IOWA STATE UNIVERSITY
  AND ALSO IN THEIR VARIOUS JOBS AFTER LEAVING ISU HAVE MADE IMPORTANT
  CONTRIBUTIONS TO THE CODE:
     IVANA ADAMOVIC, CHRISTINE AIKENS, YURI ALEXEEV, POOJA ARORA,
     ANDREY ASADCHEV, ROB BELL, PRADIPTA BANDYOPADHYAY, JONATHAN BENTZ,
     BRETT BODE, GALINA CHABAN, WEI CHEN, CHEOL HO CHOI, PAUL DAY, TIM DUDLEY,
     DMITRI FEDOROV, GRAHAM FLETCHER, MARK FREITAG, KURT GLAESEMANN, DAN KEMP,
     GRANT MERRILL, NORIYUKI MINEZAWA, JONATHAN MULLIN, TAKESHI NAGATA,
     SEAN NEDD, HEATHER NETZLOFF, BOSILJKA NJEGIC, RYAN OLSON, MIKE PAK,
     JIM SHOEMAKER, LYUDMILA SLIPCHENKO, SAROM SOK, JIE SONG,
     TETSUYA TAKETSUGU, SIMON WEBB, SOOHAENG YOO, FEDERICO ZAHARIEV

  ADDITIONAL CODE HAS BEEN PROVIDED BY COLLABORATORS IN OTHER GROUPS:
     IOWA STATE UNIVERSITY:
          JOE IVANIC, LAIMUTIS BYTAUTAS, KLAUS RUEDENBERG
     UNIVERSITY OF TOKYO: KIMIHIKO HIRAO, TAKAHITO NAKAJIMA,
          TAKAO TSUNEDA, MUNEAKI KAMIYA, SUSUMU YANAGISAWA,
          KIYOSHI YAGI, MAHITO CHIBA, SEIKEN TOKURA, NAOAKI KAWAKAMI
     UNIVERSITY OF AARHUS: FRANK JENSEN
     UNIVERSITY OF IOWA: VISVALDAS KAIRYS, HUI LI
     NATIONAL INST. OF STANDARDS AND TECHNOLOGY: WALT STEVENS, DAVID GARMER
     UNIVERSITY OF PISA: BENEDETTA MENNUCCI, JACOPO TOMASI
     UNIVERSITY OF MEMPHIS: HENRY KURTZ, PRAKASHAN KORAMBATH
     UNIVERSITY OF ALBERTA: TOBY ZENG, MARIUSZ KLOBUKOWSKI
     UNIVERSITY OF NEW ENGLAND: MARK SPACKMAN
     MIE UNIVERSITY: HIROAKI UMEDA
     MICHIGAN STATE UNIVERSITY:
          KAROL KOWALSKI, MARTA WLOCH, JEFFREY GOUR, JESSE LUTZ, PIOTR PIECUCH
     UNIVERSITY OF SILESIA: MONIKA MUSIAL, STANISLAW KUCHARSKI
     FACULTES UNIVERSITAIRES NOTRE-DAME DE LA PAIX:
          OLIVIER QUINET, BENOIT CHAMPAGNE
     UNIVERSITY OF CALIFORNIA - SANTA BARBARA: BERNARD KIRTMAN
     INSTITUTE FOR MOLECULAR SCIENCE:
          KAZUYA ISHIMURA, MICHIO KATOUDA, AND SHIGERU NAGASE
     UNIVERSITY OF NOTRE DAME: DAN CHIPMAN
     KYUSHU UNIVERSITY:
          HARUYUKI NAKANO,
          FENG LONG GU, JACEK KORCHOWIEC, MARCIN MAKOWSKI, AND YURIKO AOKI,
          HIROTOSHI MORI AND EISAKU MIYOSHI
     PENNSYLVANIA STATE UNIVERSITY:
          TZVETELIN IORDANOV, CHET SWALINA, JONATHAN SKONE,
          SHARON HAMMES-SCHIFFER
     WASEDA UNIVERSITY:
          MASATO KOBAYASHI, TOMOKO AKAMA, HIROMI NAKAI
     UNIVERSITY OF NEBRASKA:
          PEIFENG SU, DEJUN SI, YALI WANG, HUI LI
     UNIVERSITY OF ZURICH:
          ROBERTO PEVERATI, KIM BALDRIDGE
     N. COPERNICUS UNIVERSITY AND JACKSON STATE UNIVERSITY:
          MARIA BARYSZ

 EXECUTION OF GAMESS BEGUN Mon Oct  3 13:19:22 2011

            ECHO OF THE FIRST FEW INPUT CARDS -
 INPUT CARD> $CONTRL RUNTYP=HESSIAN COORD=CART UNITS=ANGS $END                              
 INPUT CARD> $BASIS  GBASIS=AM1 $END                                                        
 INPUT CARD> $DATA                                                                          
 INPUT CARD>AM1/Fullerene(C60) normal modes                                                 
 INPUT CARD>Cnh 2                                                                           
 INPUT CARD>                                                                                
 INPUT CARD>C   6.0  -0.3848078332  -3.3317712606   1.1843167282                            
 INPUT CARD>C   6.0   0.3848078332   3.3317712606  -1.1843167282                            
 INPUT CARD>C   6.0  -0.3848078332  -3.3317712606  -1.1843167282                            
 INPUT CARD>C   6.0   0.3848078332   3.3317712606   1.1843167282                            
 INPUT CARD>C   6.0   1.0074399815  -3.3317712560   0.7319479922                            
 INPUT CARD>C   6.0  -1.0074399815   3.3317712560  -0.7319479922                            
 INPUT CARD>C   6.0   1.0074399815  -3.3317712560  -0.7319479922                            
 INPUT CARD>C   6.0  -1.0074399815   3.3317712560   0.7319479922                            
 INPUT CARD>C   6.0  -1.2452643023  -3.3317712635   0.0000000000                            
 INPUT CARD>C   6.0   1.2452643023   3.3317712635   0.0000000000                            
 INPUT CARD>C   6.0   1.9603514854  -2.6038116677   1.4242787241                            
 INPUT CARD>C   6.0  -1.9603514854   2.6038116677  -1.4242787241                            
 INPUT CARD>C   6.0   1.9603514854  -2.6038116677  -1.4242787241                            
 INPUT CARD>C   6.0  -1.9603514854   2.6038116677   1.4242787241                            
 INPUT CARD>C   6.0   1.5755436435  -1.8341959917   2.6085954420                            
 INPUT CARD>C   6.0  -1.5755436435   1.8341959917  -2.6085954420                            
 INPUT CARD>C   6.0   1.5755436435  -1.8341959917  -2.6085954420                            
 INPUT CARD>C   6.0  -1.5755436435   1.8341959917   2.6085954420                            
 INPUT CARD>C   6.0   2.3451593107  -0.5889316929   2.6085954493                            
 INPUT CARD>C   6.0  -2.3451593107   0.5889316929  -2.6085954493                            
 INPUT CARD>C   6.0   2.3451593107  -0.5889316929  -2.6085954493                            
 INPUT CARD>C   6.0  -2.3451593107   0.5889316929   2.6085954493                            
 INPUT CARD>C   6.0   2.9677914535  -1.8341959916   0.6923307263                            
 INPUT CARD>C   6.0  -2.9677914535   1.8341959916  -0.6923307263                            
 INPUT CARD>C   6.0   2.9677914535  -1.8341959916  -0.6923307263                            
 INPUT CARD>C   6.0  -2.9677914535   1.8341959916   0.6923307263                            
 INPUT CARD>C   6.0   3.2056157812  -0.5889316932   1.4242787197                            
 INPUT CARD>C   6.0  -3.2056157812   0.5889316932  -1.4242787197                            
 INPUT CARD>C   6.0   3.2056157812  -0.5889316932  -1.4242787197                            
 INPUT CARD>C   6.0  -3.2056157812   0.5889316932   1.4242787197                            
 INPUT CARD>C   6.0  -0.7487876355  -2.6038116601  -2.3045313782                            
 INPUT CARD>C   6.0   0.7487876355   2.6038116601   2.3045313782                            
 INPUT CARD>C   6.0  -0.7487876355  -2.6038116601   2.3045313782                            
 INPUT CARD>C   6.0   0.7487876355   2.6038116601  -2.3045313782                            
 INPUT CARD>C   6.0   0.2586523475  -1.8341959966  -3.0364793676                            
 INPUT CARD>C   6.0  -0.2586523475   1.8341959966   3.0364793676                            
 INPUT CARD>C   6.0   0.2586523475  -1.8341959966   3.0364793676                            
 INPUT CARD>C   6.0  -0.2586523475   1.8341959966  -3.0364793676                            
 INPUT CARD>C   6.0  -0.3639798017  -0.5889316923  -3.4888480984                            
 INPUT CARD>C   6.0   0.3639798017   0.5889316923   3.4888480984                            
 INPUT CARD>C   6.0  -0.3639798017  -0.5889316923   3.4888480984                            
 INPUT CARD>C   6.0   0.3639798017   0.5889316923  -3.4888480984                            
 INPUT CARD>C   6.0  -1.9940519370  -1.8341959957  -2.3045313757                            
 INPUT CARD>C   6.0   1.9940519370   1.8341959957   2.3045313757                            
    1000000 WORDS OF MEMORY AVAILABLE


                    * * * WARNING * * *
 OLD KEYWORD COORD=CART SELECTED, AUTOMATICALLY CHANGED TO COORD=PRINAXIS.
 YOUR MOLECULE'S COORDINATES WILL BE CHANGED TO PRINCIPAL AXES BY
   A) TRANSLATION TO THE CENTER OF MASS, THEN
   B) ROTATION TO HAVE A DIAGONAL MOMENT OF INERTIA TENSOR.

 HOWEVER, NOTHING ELSE IN YOUR INPUT WILL BE ROTATED IN THE SAME WAY,
 SO IF YOU HAVE A $VEC, $VIB, $GRAD, $HESS, EFP PARTICLE COORDINATES,
 OR ANYTHING ELSE THAT DEPENDS ON THE INITIAL ORIENTATION, THAT DATA
 WILL NOT BE USED CORRECTLY IN THIS RUN.

 THE PURPOSE OF COORD=PRINAXIS IS TO BE USED ONCE, ONLY AT THE VERY
 BEGINNING OF A SERIES OF COMPUTATIONS, PERHAPS TO FIND THE SYMMETRY
 UNIQUE ATOMS FROM AN ARBITRARY INITIAL ORIENTATION.

 AFTER THE FIRST RUN, YOU SHOULD USE ONLY COORD=UNIQUE, TO ENSURE THAT
 THE COORDINATES WHICH YOU READ IN ARE THE COORDINATES THAT ARE USED.


     BASIS OPTIONS
     -------------
     GBASIS=AM1          IGAUSS=       0      POLAR=NONE    
     NDFUNC=       0     NFFUNC=       0     DIFFSP=       F
     NPFUNC=       0      DIFFS=       F     BASNAM=        


     RUN TITLE
     ---------
 AM1/Fullerene(C60) normal modes                                                 

 THE POINT GROUP OF THE MOLECULE IS CNH     
 THE ORDER OF THE PRINCIPAL AXIS IS     2

 THE MOMENTS OF INERTIA ARE (AMU-ANGSTROM**2)
 IXX=  6072.664   IYY=  6072.664   IZZ=  6072.664

 ATOM      ATOMIC                      COORDINATES (BOHR)
           CHARGE         X                   Y                   Z
 C           6.0     6.2499930740       -1.0524694421        2.2380340990
 C           6.0    -6.2499930740        1.0524694421       -2.2380340990
 C           6.0     6.2499930740       -1.0524694421       -2.2380340990
 C           6.0    -6.2499930740        1.0524694421        2.2380340990
 C           6.0     5.5183171430       -3.5796491031        1.3831811425
 C           6.0    -5.5183171430        3.5796491031       -1.3831811425
 C           6.0     5.5183171430       -3.5796491031       -1.3831811425
 C           6.0    -5.5183171430        3.5796491031        1.3831811425
 C           6.0     6.7021936676        0.5094134819        0.0000000000
 C           6.0    -6.7021936676       -0.5094134819        0.0000000000
 C           6.0     3.6961508272       -4.9267857625        2.6914965187
 C           6.0    -3.6961508272        4.9267857625       -2.6914965187
 C           6.0     3.6961508272       -4.9267857625       -2.6914965187
 C           6.0    -3.6961508272        4.9267857625        2.6914965187
 C           6.0     2.5013905018       -3.8238299554        4.9295305982
 C           6.0    -2.5013905018        3.8238299554       -4.9295305982
 C           6.0     2.5013905018       -3.8238299554       -4.9295305982
 C           6.0    -2.5013905018        3.8238299554        4.9295305982
 C           6.0    -0.1634482041       -4.5663896829        4.9295306120
 C           6.0     0.1634482041        4.5663896829       -4.9295306120
 C           6.0    -0.1634482041       -4.5663896829       -4.9295306120
 C           6.0     0.1634482041        4.5663896829        4.9295306120
 C           6.0     1.7697145814       -6.3510096102        1.3083153656
 C           6.0    -1.7697145814        6.3510096102       -1.3083153656
 C           6.0     1.7697145814       -6.3510096102       -1.3083153656
 C           6.0    -1.7697145814        6.3510096102        1.3083153656
 C           6.0    -0.6156487927       -6.1282726112        2.6914965104
 C           6.0     0.6156487927        6.1282726112       -2.6914965104
 C           6.0    -0.6156487927       -6.1282726112       -2.6914965104
 C           6.0     0.6156487927        6.1282726112        2.6914965104
 C           6.0     5.1199001237       -0.0092120196       -4.3549328349
 C           6.0    -5.1199001237        0.0092120196        4.3549328349
 C           6.0     5.1199001237       -0.0092120196        4.3549328349
 C           6.0    -5.1199001237        0.0092120196       -4.3549328349
 C           6.0     3.1934638929       -1.4334359010       -5.7381139721
 C           6.0    -3.1934638929        1.4334359010        5.7381139721
 C           6.0     3.1934638929       -1.4334359010        5.7381139721
 C           6.0    -3.1934638929        1.4334359010       -5.7381139721
 C           6.0     1.2603011006        0.3511840408       -6.5929669188
 C           6.0    -1.2603011006       -0.3511840408        6.5929669188
 C           6.0     1.2603011006        0.3511840408        6.5929669188
 C           6.0    -1.2603011006       -0.3511840408       -6.5929669188
 C           6.0     4.3773404027        2.6556266897       -4.3549328302
 C           6.0    -4.3773404027       -2.6556266897        4.3549328302
 C           6.0     4.3773404027        2.6556266897        4.3549328302
 C           6.0    -4.3773404027       -2.6556266897       -4.3549328302
 C           6.0     1.9919770249        2.8783637072       -5.7381139670
 C           6.0    -1.9919770249       -2.8783637072        5.7381139670
 C           6.0     1.9919770249        2.8783637072        5.7381139670
 C           6.0    -1.9919770249       -2.8783637072       -5.7381139670
 C           6.0     5.9998255769        3.0300156816        0.0000000000
 C           6.0    -5.9998255769       -3.0300156816        0.0000000000
 C           6.0     4.8050652838        4.1329714695       -2.2380341039
 C           6.0    -4.8050652838       -4.1329714695        2.2380341039
 C           6.0     4.8050652838        4.1329714695        2.2380341039
 C           6.0    -4.8050652838       -4.1329714695       -2.2380341039
 C           6.0     2.8719024807        5.9175913929       -1.3831811425
 C           6.0    -2.8719024807       -5.9175913929        1.3831811425
 C           6.0     2.8719024807        5.9175913929        1.3831811425
 C           6.0    -2.8719024807       -5.9175913929       -1.3831811425

          INTERNUCLEAR DISTANCES (ANGS.)
          ------------------------------

                1 C          2 C          3 C          4 C          5 C     

   1 C       0.0000000    7.1137565    2.3686335 *  6.7078392    1.4638960 *
   2 C       7.1137565    0.0000000    6.7078392    2.3686335 *  6.9615042  
   3 C       2.3686335 *  6.7078392    0.0000000    7.1137565    2.3686335 *
   4 C       6.7078392    2.3686335 *  7.1137565    0.0000000    6.7078392  
   5 C       1.4638960 *  6.9615042    2.3686335 *  6.7078392    0.0000000  
   6 C       6.9615042    1.4638960 *  6.7078392    2.3686335 *  7.1137565  
   7 C       2.3686335 *  6.7078392    1.4638960 *  6.9615042    1.4638960 *
   8 C       6.7078392    2.3686335 *  6.9615042    1.4638960 *  6.9615042  
   9 C       1.4638960 *  6.9615042    1.4638960 *  6.9615042    2.3686335 *
  10 C       6.9615042    1.4638960 *  6.9615042    1.4638960 *  6.7078392  
  11 C       2.4672412 *  6.6722000    3.5825225    6.1458168    1.3846615 *
  12 C       6.6722000    2.4672412 *  6.1458168    3.5825225    6.9776962  
  13 C       3.5825225    6.1458168    2.4672412 *  6.6722000    2.4672412 *
  14 C       6.1458168    3.5825225    6.6722000    2.4672412 *  6.6722000  
  15 C       2.8485574 *  6.5185314    4.5245875    5.4894116    2.4672412 *
  16 C       6.5185314    2.8485574 *  5.4894116    4.5245875    6.6722000  
  17 C       4.5245875    5.4894116    2.8485574 *  6.5185314    3.7046867  
  18 C       5.4894116    4.5245875    6.5185314    2.8485574 *  6.0729587  
  19 C       4.1236464    5.7966432    5.4186781    4.6090628    3.5825225  
  20 C       5.7966432    4.1236464    4.6090628    5.4186781    6.1458168  
  21 C       5.4186781    4.6090628    4.1236464    5.7966432    4.5245875  
  22 C       4.6090628    5.4186781    5.7966432    4.1236464    5.4894116  
  23 C       3.7046867    6.0729587    4.1236464    5.7966432    2.4672412 *
  24 C       6.0729587    3.7046867    5.7966432    4.1236464    6.6722000  
  25 C       4.1236464    5.7966432    3.7046867    6.0729587    2.8485574 *
  26 C       5.7966432    4.1236464    6.0729587    3.7046867    6.5185314  
  27 C       4.5245875    5.4894116    5.2171909    4.8359540    3.5825225  
  28 C       5.4894116    4.5245875    4.8359540    5.2171909    6.1458168  
  29 C       5.2171909    4.8359540    4.5245875    5.4894116    4.1236464  
  30 C       4.8359540    5.2171909    5.4894116    4.5245875    5.7966432  
  31 C       3.5825225    6.1458168    1.3846615 *  6.9776962    3.5825225  
  32 C       6.1458168    3.5825225    6.9776962    1.3846615 *  6.1458168  
  33 C       1.3846615 *  6.9776962    3.5825225    6.1458168    2.4672412 *
  34 C       6.9776962    1.3846615 *  6.1458168    3.5825225    6.6722000  
  35 C       4.5245875    5.4894116    2.4672412 *  6.6722000    4.1236464  
  36 C       5.4894116    4.5245875    6.6722000    2.4672412 *  5.7966432  
  37 C       2.4672412 *  6.6722000    4.5245875    5.4894116    2.8485574 *
  38 C       6.6722000    2.4672412 *  5.4894116    4.5245875    6.5185314  
  39 C       5.4186781    4.6090627    3.5825225    6.1458168    5.2171909  
  40 C       4.6090627    5.4186781    6.1458168    3.5825225    4.8359540  
  41 C       3.5825225    6.1458168    5.4186781    4.6090627    4.1236464  
  42 C       6.1458168    3.5825225    4.6090627    5.4186781    5.7966432  
  43 C       4.1236464    5.7966432    2.4672412 *  6.6722000    4.5245875  
  44 C       5.7966432    4.1236464    6.6722000    2.4672412 *  5.4894116  
  45 C       2.4672412 *  6.6722000    4.1236464    5.7966432    3.7046867  
  46 C       6.6722000    2.4672412 *  5.7966432    4.1236464    6.0729587  
  47 C       5.2171909    4.8359540    3.5825225    6.1458168    5.4186781  
  48 C       4.8359540    5.2171909    6.1458168    3.5825225    4.6090627  
  49 C       3.5825225    6.1458168    5.2171909    4.8359540    4.5245875  
  50 C       6.1458168    3.5825225    4.8359540    5.2171909    5.4894116  
  51 C       2.4672412 *  6.6722000    2.4672412 *  6.6722000    3.5825225  
  52 C       6.6722000    2.4672412 *  6.6722000    2.4672412 *  6.1458168  
  53 C       3.7046868    6.0729587    2.8485574 *  6.5185315    4.5245875  
  54 C       6.0729587    3.7046868    6.5185315    2.8485574 *  5.4894116  
  55 C       2.8485574 *  6.5185315    3.7046868    6.0729587    4.1236464  
  56 C       6.5185315    2.8485574 *  6.0729587    3.7046868    5.7966432  
  57 C       4.5245875    5.4894116    4.1236464    5.7966432    5.4186781  
  58 C       5.4894116    4.5245875    5.7966432    4.1236464    4.6090627  
  59 C       4.1236464    5.7966432    4.5245875    5.4894116    5.2171909  
  60 C       5.7966432    4.1236464    5.4894116    4.5245875    4.8359540  

                6 C          7 C          8 C          9 C         10 C     

   1 C       6.9615042    2.3686335 *  6.7078392    1.4638960 *  6.9615042  
   2 C       1.4638960 *  6.7078392    2.3686335 *  6.9615042    1.4638960 *
   3 C       6.7078392    1.4638960 *  6.9615042    1.4638960 *  6.9615042  
   4 C       2.3686335 *  6.9615042    1.4638960 *  6.9615042    1.4638960 *
   5 C       7.1137565    1.4638960 *  6.9615042    2.3686335 *  6.7078392  
   6 C       0.0000000    6.9615042    1.4638960 *  6.7078392    2.3686335 *
   7 C       6.9615042    0.0000000    7.1137565    2.3686335 *  6.7078392  
   8 C       1.4638960 *  7.1137565    0.0000000    6.7078392    2.3686335 *
   9 C       6.7078392    2.3686335 *  6.7078392    0.0000000    7.1137565  
  10 C       2.3686335 *  6.7078392    2.3686335 *  7.1137565    0.0000000  
  11 C       6.9776962    2.4672412 *  6.6722000    3.5825225    6.1458168  
  12 C       1.3846615 *  6.6722000    2.4672412 *  6.1458168    3.5825225  
  13 C       6.6722000    1.3846615 *  6.9776962    3.5825225    6.1458168  
  14 C       2.4672412 *  6.9776962    1.3846615 *  6.1458168    3.5825225  
  15 C       6.6722000    3.7046867    6.0729587    4.1236464    5.7966432  
  16 C       2.4672412 *  6.0729587    3.7046867    5.7966432    4.1236464  
  17 C       6.0729587    2.4672412 *  6.6722000    4.1236464    5.7966432  
  18 C       3.7046867    6.6722000    2.4672412 *  5.7966432    4.1236464  
  19 C       6.1458168    4.5245875    5.4894116    5.2171909    4.8359540  
  20 C       3.5825225    5.4894116    4.5245875    4.8359540    5.2171909  
  21 C       5.4894116    3.5825225    6.1458168    5.2171909    4.8359540  
  22 C       4.5245875    6.1458168    3.5825225    4.8359540    5.2171909  
  23 C       6.6722000    2.8485574 *  6.5185314    4.5245875    5.4894116  
  24 C       2.4672412 *  6.5185314    2.8485574 *  5.4894116    4.5245875  
  25 C       6.5185314    2.4672412 *  6.6722000    4.5245875    5.4894116  
  26 C       2.8485574 *  6.6722000    2.4672412 *  5.4894116    4.5245875  
  27 C       6.1458168    4.1236464    5.7966432    5.4186781    4.6090628  
  28 C       3.5825225    5.7966432    4.1236464    4.6090628    5.4186781  
  29 C       5.7966432    3.5825225    6.1458168    5.4186781    4.6090628  
  30 C       4.1236464    6.1458168    3.5825225    4.6090628    5.4186781  
  31 C       6.1458168    2.4672412 *  6.6722000    2.4672412 *  6.6722000  
  32 C       3.5825225    6.6722000    2.4672412 *  6.6722000    2.4672412 *
  33 C       6.6722000    3.5825225    6.1458168    2.4672412 *  6.6722000  
  34 C       2.4672412 *  6.1458168    3.5825225    6.6722000    2.4672412 *
  35 C       5.7966432    2.8485574 *  6.5185314    3.7046868    6.0729587  
  36 C       4.1236464    6.5185314    2.8485574 *  6.0729587    3.7046868  
  37 C       6.5185314    4.1236464    5.7966432    3.7046868    6.0729587  
  38 C       2.8485574 *  5.7966432    4.1236464    6.0729587    3.7046868  
  39 C       4.8359540    4.1236464    5.7966432    4.5245875    5.4894116  
  40 C       5.2171909    5.7966432    4.1236464    5.4894116    4.5245875  
  41 C       5.7966432    5.2171909    4.8359540    4.5245875    5.4894116  
  42 C       4.1236464    4.8359540    5.2171909    5.4894116    4.5245875  
  43 C       5.4894116    3.7046867    6.0729587    2.8485574 *  6.5185315  
  44 C       4.5245875    6.0729587    3.7046867    6.5185315    2.8485574 *
  45 C       6.0729587    4.5245875    5.4894116    2.8485574 *  6.5185315  
  46 C       3.7046867    5.4894116    4.5245875    6.5185315    2.8485574 *
  47 C       4.6090627    4.5245875    5.4894116    4.1236464    5.7966432  
  48 C       5.4186781    5.4894116    4.5245875    5.7966432    4.1236464  
  49 C       5.4894116    5.4186781    4.6090627    4.1236464    5.7966432  
  50 C       4.5245875    4.6090627    5.4186781    5.7966432    4.1236464  
  51 C       6.1458168    3.5825225    6.1458168    1.3846615 *  6.9776962  
  52 C       3.5825225    6.1458168    3.5825225    6.9776962    1.3846615 *
  53 C       5.4894116    4.1236464    5.7966432    2.4672412 *  6.6722000  
  54 C       4.5245875    5.7966432    4.1236464    6.6722000    2.4672412 *
  55 C       5.7966432    4.5245875    5.4894116    2.4672412 *  6.6722000  
  56 C       4.1236464    5.4894116    4.5245875    6.6722000    2.4672412 *
  57 C       4.6090627    5.2171909    4.8359540    3.5825225    6.1458168  
  58 C       5.4186781    4.8359540    5.2171909    6.1458168    3.5825225  
  59 C       4.8359540    5.4186781    4.6090627    3.5825225    6.1458168  
  60 C       5.2171909    4.6090627    5.4186781    6.1458168    3.5825225  

               11 C         12 C         13 C         14 C         15 C     

   1 C       2.4672412 *  6.6722000    3.5825225    6.1458168    2.8485574 *
   2 C       6.6722000    2.4672412 *  6.1458168    3.5825225    6.5185314  
   3 C       3.5825225    6.1458168    2.4672412 *  6.6722000    4.5245875  
   4 C       6.1458168    3.5825225    6.6722000    2.4672412 *  5.4894116  
   5 C       1.3846615 *  6.9776962    2.4672412 *  6.6722000    2.4672412 *
   6 C       6.9776962    1.3846615 *  6.6722000    2.4672412 *  6.6722000  
   7 C       2.4672412 *  6.6722000    1.3846615 *  6.9776962    3.7046867  
   8 C       6.6722000    2.4672412 *  6.9776962    1.3846615 *  6.0729587  
   9 C       3.5825225    6.1458168    3.5825225    6.1458168    4.1236464  
  10 C       6.1458168    3.5825225    6.1458168    3.5825225    5.7966432  
  11 C       0.0000000    7.1137565    2.8485574 *  6.5185315    1.4638960 *
  12 C       7.1137565    0.0000000    6.5185315    2.8485574 *  6.9615042  
  13 C       2.8485574 *  6.5185315    0.0000000    7.1137565    4.1236464  
  14 C       6.5185315    2.8485574 *  7.1137565    0.0000000    5.7966432  
  15 C       1.4638960 *  6.9615042    4.1236464    5.7966432    0.0000000  
  16 C       6.9615042    1.4638960 *  5.7966432    4.1236464    7.1137565  
  17 C       4.1236464    5.7966432    1.4638960 *  6.9615042    5.2171909  
  18 C       5.7966432    4.1236464    6.9615042    1.4638960 *  4.8359540  
  19 C       2.3686335 *  6.7078393    4.5245875    5.4894116    1.4638960 *
  20 C       6.7078393    2.3686335 *  5.4894116    4.5245875    6.9615042  
  21 C       4.5245875    5.4894116    2.3686335 *  6.7078393    5.4186781  
  22 C       5.4894116    4.5245875    6.7078393    2.3686335 *  4.6090627  
  23 C       1.4638960 *  6.9615042    2.4672412 *  6.6722000    2.3686335 *
  24 C       6.9615042    1.4638960 *  6.6722000    2.4672412 *  6.7078392  
  25 C       2.4672412 *  6.6722000    1.4638960 *  6.9615042    3.5825225  
  26 C       6.6722000    2.4672412 *  6.9615042    1.4638960 *  6.1458168  
  27 C       2.3686335 *  6.7078393    3.7046868    6.0729587    2.3686335 *
  28 C       6.7078393    2.3686335 *  6.0729587    3.7046868    6.7078392  
  29 C       3.7046868    6.0729587    2.3686335 *  6.7078393    4.5245875  
  30 C       6.0729587    3.7046868    6.7078393    2.3686335 *  5.4894116  
  31 C       4.6090628    5.4186781    2.8485574 *  6.5185315    5.4894116  
  32 C       5.4186781    4.6090628    6.5185315    2.8485574 *  4.5245875  
  33 C       2.8485574 *  6.5185315    4.6090628    5.4186781    2.4672412 *
  34 C       6.5185315    2.8485574 *  5.4186781    4.6090628    6.6722000  
  35 C       4.8359540    5.2171909    2.4672412 *  6.6722000    5.7966432  
  36 C       5.2171909    4.8359540    6.6722000    2.4672412 *  4.1236464  
  37 C       2.4672412 *  6.6722000    4.8359540    5.2171909    1.3846615 *
  38 C       6.6722000    2.4672412 *  5.2171909    4.8359540    6.9776962  
  39 C       5.7966432    4.1236464    3.7046868    6.0729587    6.5185314  
  40 C       4.1236464    5.7966432    6.0729587    3.7046868    2.8485574 *
  41 C       3.7046868    6.0729587    5.7966432    4.1236464    2.4672412 *
  42 C       6.0729587    3.7046868    4.1236464    5.7966432    6.6722000  
  43 C       5.4894116    4.5245875    4.1236464    5.7966432    6.0729587  
  44 C       4.5245875    5.4894116    5.7966432    4.1236464    3.7046868  
  45 C       4.1236464    5.7966432    5.4894116    4.5245875    3.5825225  
  46 C       5.7966432    4.1236464    4.5245875    5.4894116    6.1458168  
  47 C       6.1458168    3.5825225    4.5245875    5.4894116    6.6722000  
  48 C       3.5825225    6.1458168    5.4894116    4.5245875    2.4672412 *
  49 C       4.5245875    5.4894116    6.1458168    3.5825225    3.5825225  
  50 C       5.4894116    4.5245875    3.5825225    6.1458168    6.1458168  
  51 C       4.6090628    5.4186781    4.6090628    5.4186781    4.8359540  
  52 C       5.4186781    4.6090628    5.4186781    4.6090628    5.2171909  
  53 C       5.4894116    4.5245876    4.8359540    5.2171909    5.7966432  
  54 C       4.5245876    5.4894116    5.2171909    4.8359540    4.1236464  
  55 C       4.8359540    5.2171909    5.4894116    4.5245876    4.6090628  
  56 C       5.2171909    4.8359540    4.5245876    5.4894116    5.4186781  
  57 C       6.1458168    3.5825225    5.7966432    4.1236464    6.1458168  
  58 C       3.5825225    6.1458168    4.1236464    5.7966432    3.5825225  
  59 C       5.7966432    4.1236464    6.1458168    3.5825225    5.4894116  
  60 C       4.1236464    5.7966432    3.5825225    6.1458168    4.5245875  

               16 C         17 C         18 C         19 C         20 C     

   1 C       6.5185314    4.5245875    5.4894116    4.1236464    5.7966432  
   2 C       2.8485574 *  5.4894116    4.5245875    5.7966432    4.1236464  
   3 C       5.4894116    2.8485574 *  6.5185314    5.4186781    4.6090628  
   4 C       4.5245875    6.5185314    2.8485574 *  4.6090628    5.4186781  
   5 C       6.6722000    3.7046867    6.0729587    3.5825225    6.1458168  
   6 C       2.4672412 *  6.0729587    3.7046867    6.1458168    3.5825225  
   7 C       6.0729587    2.4672412 *  6.6722000    4.5245875    5.4894116  
   8 C       3.7046867    6.6722000    2.4672412 *  5.4894116    4.5245875  
   9 C       5.7966432    4.1236464    5.7966432    5.2171909    4.8359540  
  10 C       4.1236464    5.7966432    4.1236464    4.8359540    5.2171909  
  11 C       6.9615042    4.1236464    5.7966432    2.3686335 *  6.7078393  
  12 C       1.4638960 *  5.7966432    4.1236464    6.7078393    2.3686335 *
  13 C       5.7966432    1.4638960 *  6.9615042    4.5245875    5.4894116  
  14 C       4.1236464    6.9615042    1.4638960 *  5.4894116    4.5245875  
  15 C       7.1137565    5.2171909    4.8359540    1.4638960 *  6.9615042  
  16 C       0.0000000    4.8359540    5.2171909    6.9615042    1.4638960 *
  17 C       4.8359540    0.0000000    7.1137565    5.4186781    4.6090627  
  18 C       5.2171909    7.1137565    0.0000000    4.6090627    5.4186781  
  19 C       6.9615042    5.4186781    4.6090627    0.0000000    7.1137565  
  20 C       1.4638960 *  4.6090627    5.4186781    7.1137565    0.0000000  
  21 C       4.6090627    1.4638960 *  6.9615042    5.2171909    4.8359540  
  22 C       5.4186781    6.9615042    1.4638960 *  4.8359540    5.2171909  
  23 C       6.7078392    3.5825225    6.1458168    2.3686335 *  6.7078392  
  24 C       2.3686335 *  6.1458168    3.5825225    6.7078392    2.3686335 *
  25 C       6.1458168    2.3686335 *  6.7078392    3.5825225    6.1458168  
  26 C       3.5825225    6.7078392    2.3686335 *  6.1458168    3.5825225  
  27 C       6.7078392    4.5245875    5.4894116    1.4638960 *  6.9615042  
  28 C       2.3686335 *  5.4894116    4.5245875    6.9615042    1.4638960 *
  29 C       5.4894116    2.3686335 *  6.7078392    4.1236464    5.7966432  
  30 C       4.5245875    6.7078392    2.3686335 *  5.7966432    4.1236464  
  31 C       4.5245875    2.4672412 *  6.6722000    6.1458168    3.5825225  
  32 C       5.4894116    6.6722000    2.4672412 *  3.5825225    6.1458168  
  33 C       6.6722000    5.4894116    4.5245875    3.7046868    6.0729587  
  34 C       2.4672412 *  4.5245875    5.4894116    6.0729587    3.7046868  
  35 C       4.1236464    1.3846615 *  6.9776962    6.1458168    3.5825225  
  36 C       5.7966432    6.9776962    1.3846615 *  3.5825225    6.1458168  
  37 C       6.9776962    5.7966432    4.1236464    2.4672412 *  6.6722000  
  38 C       1.3846615 *  4.1236464    5.7966432    6.6722000    2.4672412 *
  39 C       2.8485574 *  2.4672412 *  6.6722000    6.6722000    2.4672412 *
  40 C       6.5185314    6.6722000    2.4672412 *  2.4672412 *  6.6722000  
  41 C       6.6722000    6.5185314    2.8485574 *  2.8485574 *  6.5185314  
  42 C       2.4672412 *  2.8485574 *  6.5185314    6.5185314    2.8485574 *
  43 C       3.7046868    3.5825225    6.1458168    6.6722000    2.4672412 *
  44 C       6.0729587    6.1458168    3.5825225    2.4672412 *  6.6722000  
  45 C       6.1458168    6.0729587    3.7046868    4.5245875    5.4894116  
  46 C       3.5825225    3.7046868    6.0729587    5.4894116    4.5245875  
  47 C       2.4672412 *  3.5825225    6.1458168    6.9776962    1.3846615 *
  48 C       6.6722000    6.1458168    3.5825225    1.3846615 *  6.9776962  
  49 C       6.1458168    6.6722000    2.4672412 *  4.1236464    5.7966432  
  50 C       3.5825225    2.4672412 *  6.6722000    5.7966432    4.1236464  
  51 C       5.2171909    4.8359540    5.2171909    5.7966432    4.1236464  
  52 C       4.8359540    5.2171909    4.8359540    4.1236464    5.7966432  
  53 C       4.1236464    4.6090628    5.4186781    6.5185315    2.8485574 *
  54 C       5.7966432    5.4186781    4.6090628    2.8485574 *  6.5185315  
  55 C       5.4186781    5.7966432    4.1236464    5.4894116    4.5245875  
  56 C       4.6090628    4.1236464    5.7966432    4.5245875    5.4894116  
  57 C       3.5825225    5.4894116    4.5245875    6.6722000    2.4672412 *
  58 C       6.1458168    4.5245875    5.4894116    2.4672412 *  6.6722000  
  59 C       4.5245875    6.1458168    3.5825225    6.0729587    3.7046868  
  60 C       5.4894116    3.5825225    6.1458168    3.7046868    6.0729587  

               21 C         22 C         23 C         24 C         25 C     

   1 C       5.4186781    4.6090628    3.7046867    6.0729587    4.1236464  
   2 C       4.6090628    5.4186781    6.0729587    3.7046867    5.7966432  
   3 C       4.1236464    5.7966432    4.1236464    5.7966432    3.7046867  
   4 C       5.7966432    4.1236464    5.7966432    4.1236464    6.0729587  
   5 C       4.5245875    5.4894116    2.4672412 *  6.6722000    2.8485574 *
   6 C       5.4894116    4.5245875    6.6722000    2.4672412 *  6.5185314  
   7 C       3.5825225    6.1458168    2.8485574 *  6.5185314    2.4672412 *
   8 C       6.1458168    3.5825225    6.5185314    2.8485574 *  6.6722000  
   9 C       5.2171909    4.8359540    4.5245875    5.4894116    4.5245875  
  10 C       4.8359540    5.2171909    5.4894116    4.5245875    5.4894116  
  11 C       4.5245875    5.4894116    1.4638960 *  6.9615042    2.4672412 *
  12 C       5.4894116    4.5245875    6.9615042    1.4638960 *  6.6722000  
  13 C       2.3686335 *  6.7078393    2.4672412 *  6.6722000    1.4638960 *
  14 C       6.7078393    2.3686335 *  6.6722000    2.4672412 *  6.9615042  
  15 C       5.4186781    4.6090627    2.3686335 *  6.7078392    3.5825225  
  16 C       4.6090627    5.4186781    6.7078392    2.3686335 *  6.1458168  
  17 C       1.4638960 *  6.9615042    3.5825225    6.1458168    2.3686335 *
  18 C       6.9615042    1.4638960 *  6.1458168    3.5825225    6.7078392  
  19 C       5.2171909    4.8359540    2.3686335 *  6.7078392    3.5825225  
  20 C       4.8359540    5.2171909    6.7078392    2.3686335 *  6.1458168  
  21 C       0.0000000    7.1137565    3.5825225    6.1458168    2.3686335 *
  22 C       7.1137565    0.0000000    6.1458168    3.5825225    6.7078392  
  23 C       3.5825225    6.1458168    0.0000000    7.1137565    1.3846615 *
  24 C       6.1458168    3.5825225    7.1137565    0.0000000    6.9776962  
  25 C       2.3686335 *  6.7078392    1.3846615 *  6.9776962    0.0000000  
  26 C       6.7078392    2.3686335 *  6.9776962    1.3846615 *  7.1137565  
  27 C       4.1236464    5.7966432    1.4638960 *  6.9615042    2.4672412 *
  28 C       5.7966432    4.1236464    6.9615042    1.4638960 *  6.6722000  
  29 C       1.4638960 *  6.9615042    2.4672412 *  6.6722000    1.4638960 *
  30 C       6.9615042    1.4638960 *  6.6722000    2.4672412 *  6.9615042  
  31 C       3.7046868    6.0729587    4.8359540    5.2171909    4.1236464  
  32 C       6.0729587    3.7046868    5.2171909    4.8359540    5.7966432  
  33 C       6.1458168    3.5825225    4.1236464    5.7966432    4.8359540  
  34 C       3.5825225    6.1458168    5.7966432    4.1236464    5.2171909  
  35 C       2.4672412 *  6.6722000    4.6090627    5.4186781    3.5825225  
  36 C       6.6722000    2.4672412 *  5.4186781    4.6090627    6.1458168  
  37 C       6.1458168    3.5825225    3.5825225    6.1458168    4.6090627  
  38 C       3.5825225    6.1458168    6.1458168    3.5825225    5.4186781  
  39 C       2.8485574 *  6.5185314    5.4894116    4.5245875    4.5245875  
  40 C       6.5185314    2.8485574 *  4.5245875    5.4894116    5.4894116  
  41 C       6.6722000    2.4672412 *  4.5245875    5.4894116    5.4894116  
  42 C       2.4672412 *  6.6722000    5.4894116    4.5245875    4.5245875  
  43 C       4.5245875    5.4894116    5.7966432    4.1236464    5.2171909  
  44 C       5.4894116    4.5245875    4.1236464    5.7966432    4.8359540  
  45 C       6.6722000    2.4672412 *  5.2171909    4.8359540    5.7966432  
  46 C       2.4672412 *  6.6722000    4.8359540    5.2171909    4.1236464  
  47 C       4.1236464    5.7966432    6.1458168    3.5825225    5.4186781  
  48 C       5.7966432    4.1236464    3.5825225    6.1458168    4.6090627  
  49 C       6.9776962    1.3846615 *  5.4186781    4.6090627    6.1458168  
  50 C       1.3846615 *  6.9776962    4.6090627    5.4186781    3.5825225  
  51 C       5.7966432    4.1236464    5.4894116    4.5245875    5.4894116  
  52 C       4.1236464    5.7966432    4.5245875    5.4894116    4.5245875  
  53 C       5.4894116    4.5245875    6.0729587    3.7046868    5.7966432  
  54 C       4.5245875    5.4894116    3.7046868    6.0729587    4.1236464  
  55 C       6.5185315    2.8485574 *  5.7966432    4.1236464    6.0729587  
  56 C       2.8485574 *  6.5185315    4.1236464    5.7966432    3.7046868  
  57 C       6.0729587    3.7046868    6.6722000    2.4672412 *  6.5185314  
  58 C       3.7046868    6.0729587    2.4672412 *  6.6722000    2.8485574 *
  59 C       6.6722000    2.4672412 *  6.5185314    2.8485574 *  6.6722000  
  60 C       2.4672412 *  6.6722000    2.8485574 *  6.5185314    2.4672412 *

               26 C         27 C         28 C         29 C         30 C     

   1 C       5.7966432    4.5245875    5.4894116    5.2171909    4.8359540  
   2 C       4.1236464    5.4894116    4.5245875    4.8359540    5.2171909  
   3 C       6.0729587    5.2171909    4.8359540    4.5245875    5.4894116  
   4 C       3.7046867    4.8359540    5.2171909    5.4894116    4.5245875  
   5 C       6.5185314    3.5825225    6.1458168    4.1236464    5.7966432  
   6 C       2.8485574 *  6.1458168    3.5825225    5.7966432    4.1236464  
   7 C       6.6722000    4.1236464    5.7966432    3.5825225    6.1458168  
   8 C       2.4672412 *  5.7966432    4.1236464    6.1458168    3.5825225  
   9 C       5.4894116    5.4186781    4.6090628    5.4186781    4.6090628  
  10 C       4.5245875    4.6090628    5.4186781    4.6090628    5.4186781  
  11 C       6.6722000    2.3686335 *  6.7078393    3.7046868    6.0729587  
  12 C       2.4672412 *  6.7078393    2.3686335 *  6.0729587    3.7046868  
  13 C       6.9615042    3.7046868    6.0729587    2.3686335 *  6.7078393  
  14 C       1.4638960 *  6.0729587    3.7046868    6.7078393    2.3686335 *
  15 C       6.1458168    2.3686335 *  6.7078392    4.5245875    5.4894116  
  16 C       3.5825225    6.7078392    2.3686335 *  5.4894116    4.5245875  
  17 C       6.7078392    4.5245875    5.4894116    2.3686335 *  6.7078392  
  18 C       2.3686335 *  5.4894116    4.5245875    6.7078392    2.3686335 *
  19 C       6.1458168    1.4638960 *  6.9615042    4.1236464    5.7966432  
  20 C       3.5825225    6.9615042    1.4638960 *  5.7966432    4.1236464  
  21 C       6.7078392    4.1236464    5.7966432    1.4638960 *  6.9615042  
  22 C       2.3686335 *  5.7966432    4.1236464    6.9615042    1.4638960 *
  23 C       6.9776962    1.4638960 *  6.9615042    2.4672412 *  6.6722000  
  24 C       1.3846615 *  6.9615042    1.4638960 *  6.6722000    2.4672412 *
  25 C       7.1137565    2.4672412 *  6.6722000    1.4638960 *  6.9615042  
  26 C       0.0000000    6.6722000    2.4672412 *  6.9615042    1.4638960 *
  27 C       6.6722000    0.0000000    7.1137565    2.8485574 *  6.5185315  
  28 C       2.4672412 *  7.1137565    0.0000000    6.5185315    2.8485574 *
  29 C       6.9615042    2.8485574 *  6.5185315    0.0000000    7.1137565  
  30 C       1.4638960 *  6.5185315    2.8485574 *  7.1137565    0.0000000  
  31 C       5.7966432    5.7966432    4.1236464    4.5245875    5.4894116  
  32 C       4.1236464    4.1236464    5.7966432    5.4894116    4.5245875  
  33 C       5.2171909    4.5245875    5.4894116    5.7966432    4.1236464  
  34 C       4.8359540    5.4894116    4.5245875    4.1236464    5.7966432  
  35 C       6.1458168    5.4894116    4.5245875    3.5825225    6.1458168  
  36 C       3.5825225    4.5245875    5.4894116    6.1458168    3.5825225  
  37 C       5.4186781    3.5825225    6.1458168    5.4894116    4.5245875  
  38 C       4.6090627    6.1458168    3.5825225    4.5245875    5.4894116  
  39 C       5.4894116    6.0729587    3.7046867    4.1236464    5.7966432  
  40 C       4.5245875    3.7046867    6.0729587    5.7966432    4.1236464  
  41 C       4.5245875    4.1236464    5.7966432    6.0729587    3.7046867  
  42 C       5.4894116    5.7966432    4.1236464    3.7046867    6.0729587  
  43 C       4.8359540    6.5185315    2.8485574 *  5.4186781    4.6090628  
  44 C       5.2171909    2.8485574 *  6.5185315    4.6090628    5.4186781  
  45 C       4.1236464    5.4186781    4.6090628    6.5185315    2.8485574 *
  46 C       5.7966432    4.6090628    5.4186781    2.8485574 *  6.5185315  
  47 C       4.6090627    6.6722000    2.4672412 *  5.2171909    4.8359540  
  48 C       5.4186781    2.4672412 *  6.6722000    4.8359540    5.2171909  
  49 C       3.5825225    5.2171909    4.8359540    6.6722000    2.4672412 *
  50 C       6.1458168    4.8359540    5.2171909    2.4672412 *  6.6722000  
  51 C       4.5245875    6.1458168    3.5825225    6.1458168    3.5825225  
  52 C       5.4894116    3.5825225    6.1458168    3.5825225    6.1458168  
  53 C       4.1236464    6.6722000    2.4672412 *  6.1458168    3.5825225  
  54 C       5.7966432    2.4672412 *  6.6722000    3.5825225    6.1458168  
  55 C       3.7046868    6.1458168    3.5825225    6.6722000    2.4672412 *
  56 C       6.0729587    3.5825225    6.1458168    2.4672412 *  6.6722000  
  57 C       2.8485574 *  6.9776962    1.3846615 *  6.6722000    2.4672412 *
  58 C       6.5185314    1.3846615 *  6.9776962    2.4672412 *  6.6722000  
  59 C       2.4672412 *  6.6722000    2.4672412 *  6.9776962    1.3846615 *
  60 C       6.6722000    2.4672412 *  6.6722000    1.3846615 *  6.9776962  

               31 C         32 C         33 C         34 C         35 C     

   1 C       3.5825225    6.1458168    1.3846615 *  6.9776962    4.5245875  
   2 C       6.1458168    3.5825225    6.9776962    1.3846615 *  5.4894116  
   3 C       1.3846615 *  6.9776962    3.5825225    6.1458168    2.4672412 *
   4 C       6.9776962    1.3846615 *  6.1458168    3.5825225    6.6722000  
   5 C       3.5825225    6.1458168    2.4672412 *  6.6722000    4.1236464  
   6 C       6.1458168    3.5825225    6.6722000    2.4672412 *  5.7966432  
   7 C       2.4672412 *  6.6722000    3.5825225    6.1458168    2.8485574 *
   8 C       6.6722000    2.4672412 *  6.1458168    3.5825225    6.5185314  
   9 C       2.4672412 *  6.6722000    2.4672412 *  6.6722000    3.7046868  
  10 C       6.6722000    2.4672412 *  6.6722000    2.4672412 *  6.0729587  
  11 C       4.6090628    5.4186781    2.8485574 *  6.5185315    4.8359540  
  12 C       5.4186781    4.6090628    6.5185315    2.8485574 *  5.2171909  
  13 C       2.8485574 *  6.5185315    4.6090628    5.4186781    2.4672412 *
  14 C       6.5185315    2.8485574 *  5.4186781    4.6090628    6.6722000  
  15 C       5.4894116    4.5245875    2.4672412 *  6.6722000    5.7966432  
  16 C       4.5245875    5.4894116    6.6722000    2.4672412 *  4.1236464  
  17 C       2.4672412 *  6.6722000    5.4894116    4.5245875    1.3846615 *
  18 C       6.6722000    2.4672412 *  4.5245875    5.4894116    6.9776962  
  19 C       6.1458168    3.5825225    3.7046868    6.0729587    6.1458168  
  20 C       3.5825225    6.1458168    6.0729587    3.7046868    3.5825225  
  21 C       3.7046868    6.0729587    6.1458168    3.5825225    2.4672412 *
  22 C       6.0729587    3.7046868    3.5825225    6.1458168    6.6722000  
  23 C       4.8359540    5.2171909    4.1236464    5.7966432    4.6090627  
  24 C       5.2171909    4.8359540    5.7966432    4.1236464    5.4186781  
  25 C       4.1236464    5.7966432    4.8359540    5.2171909    3.5825225  
  26 C       5.7966432    4.1236464    5.2171909    4.8359540    6.1458168  
  27 C       5.7966432    4.1236464    4.5245875    5.4894116    5.4894116  
  28 C       4.1236464    5.7966432    5.4894116    4.5245875    4.5245875  
  29 C       4.5245875    5.4894116    5.7966432    4.1236464    3.5825225  
  30 C       5.4894116    4.5245875    4.1236464    5.7966432    6.1458168  
  31 C       0.0000000    7.1137565    4.6090628    5.4186781    1.4638960 *
  32 C       7.1137565    0.0000000    5.4186781    4.6090628    6.9615042  
  33 C       4.6090628    5.4186781    0.0000000    7.1137565    5.4894116  
  34 C       5.4186781    4.6090628    7.1137565    0.0000000    4.5245875  
  35 C       1.4638960 *  6.9615042    5.4894116    4.5245875    0.0000000  
  36 C       6.9615042    1.4638960 *  4.5245875    5.4894116    7.1137565  
  37 C       5.4894116    4.5245875    1.4638960 *  6.9615042    6.0729587  
  38 C       4.5245875    5.4894116    6.9615042    1.4638960 *  3.7046868  
  39 C       2.3686335 *  6.7078392    6.1458168    3.5825225    1.4638960 *
  40 C       6.7078392    2.3686335 *  3.5825225    6.1458168    6.9615042  
  41 C       6.1458168    3.5825225    2.3686335 *  6.7078392    6.6722000  
  42 C       3.5825225    6.1458168    6.7078392    2.3686335 *  2.4672412 *
  43 C       1.4638960 *  6.9615042    4.8359540    5.2171909    2.3686335 *
  44 C       6.9615042    1.4638960 *  5.2171909    4.8359540    6.7078392  
  45 C       4.8359540    5.2171909    1.4638960 *  6.9615042    5.7966432  
  46 C       5.2171909    4.8359540    6.9615042    1.4638960 *  4.1236464  
  47 C       2.3686335 *  6.7078392    5.7966432    4.1236464    2.3686335 *
  48 C       6.7078392    2.3686335 *  4.1236464    5.7966432    6.7078392  
  49 C       5.7966432    4.1236464    2.3686335 *  6.7078392    6.5185314  
  50 C       4.1236464    5.7966432    6.7078392    2.3686335 *  2.8485574 *
  51 C       2.8485574 *  6.5185315    2.8485574 *  6.5185315    4.1236464  
  52 C       6.5185315    2.8485574 *  6.5185315    2.8485574 *  5.7966432  
  53 C       2.4672412 *  6.6722000    4.1236464    5.7966432    3.5825225  
  54 C       6.6722000    2.4672412 *  5.7966432    4.1236464    6.1458168  
  55 C       4.1236464    5.7966432    2.4672412 *  6.6722000    5.2171909  
  56 C       5.7966432    4.1236464    6.6722000    2.4672412 *  4.8359540  
  57 C       3.7046867    6.0729587    4.5245875    5.4894116    4.5245875  
  58 C       6.0729587    3.7046867    5.4894116    4.5245875    5.4894116  
  59 C       4.5245875    5.4894116    3.7046867    6.0729587    5.4186781  
  60 C       5.4894116    4.5245875    6.0729587    3.7046867    4.6090627  

               36 C         37 C         38 C         39 C         40 C     

   1 C       5.4894116    2.4672412 *  6.6722000    5.4186781    4.6090627  
   2 C       4.5245875    6.6722000    2.4672412 *  4.6090627    5.4186781  
   3 C       6.6722000    4.5245875    5.4894116    3.5825225    6.1458168  
   4 C       2.4672412 *  5.4894116    4.5245875    6.1458168    3.5825225  
   5 C       5.7966432    2.8485574 *  6.5185314    5.2171909    4.8359540  
   6 C       4.1236464    6.5185314    2.8485574 *  4.8359540    5.2171909  
   7 C       6.5185314    4.1236464    5.7966432    4.1236464    5.7966432  
   8 C       2.8485574 *  5.7966432    4.1236464    5.7966432    4.1236464  
   9 C       6.0729587    3.7046868    6.0729587    4.5245875    5.4894116  
  10 C       3.7046868    6.0729587    3.7046868    5.4894116    4.5245875  
  11 C       5.2171909    2.4672412 *  6.6722000    5.7966432    4.1236464  
  12 C       4.8359540    6.6722000    2.4672412 *  4.1236464    5.7966432  
  13 C       6.6722000    4.8359540    5.2171909    3.7046868    6.0729587  
  14 C       2.4672412 *  5.2171909    4.8359540    6.0729587    3.7046868  
  15 C       4.1236464    1.3846615 *  6.9776962    6.5185314    2.8485574 *
  16 C       5.7966432    6.9776962    1.3846615 *  2.8485574 *  6.5185314  
  17 C       6.9776962    5.7966432    4.1236464    2.4672412 *  6.6722000  
  18 C       1.3846615 *  4.1236464    5.7966432    6.6722000    2.4672412 *
  19 C       3.5825225    2.4672412 *  6.6722000    6.6722000    2.4672412 *
  20 C       6.1458168    6.6722000    2.4672412 *  2.4672412 *  6.6722000  
  21 C       6.6722000    6.1458168    3.5825225    2.8485574 *  6.5185314  
  22 C       2.4672412 *  3.5825225    6.1458168    6.5185314    2.8485574 *
  23 C       5.4186781    3.5825225    6.1458168    5.4894116    4.5245875  
  24 C       4.6090627    6.1458168    3.5825225    4.5245875    5.4894116  
  25 C       6.1458168    4.6090627    5.4186781    4.5245875    5.4894116  
  26 C       3.5825225    5.4186781    4.6090627    5.4894116    4.5245875  
  27 C       4.5245875    3.5825225    6.1458168    6.0729587    3.7046867  
  28 C       5.4894116    6.1458168    3.5825225    3.7046867    6.0729587  
  29 C       6.1458168    5.4894116    4.5245875    4.1236464    5.7966432  
  30 C       3.5825225    4.5245875    5.4894116    5.7966432    4.1236464  
  31 C       6.9615042    5.4894116    4.5245875    2.3686335 *  6.7078392  
  32 C       1.4638960 *  4.5245875    5.4894116    6.7078392    2.3686335 *
  33 C       4.5245875    1.4638960 *  6.9615042    6.1458168    3.5825225  
  34 C       5.4894116    6.9615042    1.4638960 *  3.5825225    6.1458168  
  35 C       7.1137565    6.0729587    3.7046868    1.4638960 *  6.9615042  
  36 C       0.0000000    3.7046868    6.0729587    6.9615042    1.4638960 *
  37 C       3.7046868    0.0000000    7.1137565    6.6722000    2.4672412 *
  38 C       6.0729587    7.1137565    0.0000000    2.4672412 *  6.6722000  
  39 C       6.9615042    6.6722000    2.4672412 *  0.0000000    7.1137565  
  40 C       1.4638960 *  2.4672412 *  6.6722000    7.1137565    0.0000000  
  41 C       2.4672412 *  1.4638960 *  6.9615042    6.9776962    1.3846615 *
  42 C       6.6722000    6.9615042    1.4638960 *  1.3846615 *  6.9776962  
  43 C       6.7078392    5.7966432    4.1236464    2.3686335 *  6.7078392  
  44 C       2.3686335 *  4.1236464    5.7966432    6.7078392    2.3686335 *
  45 C       4.1236464    2.3686335 *  6.7078392    6.1458168    3.5825225  
  46 C       5.7966432    6.7078392    2.3686335 *  3.5825225    6.1458168  
  47 C       6.7078392    6.5185314    2.8485574 *  1.4638960 *  6.9615042  
  48 C       2.3686335 *  2.8485574 *  6.5185314    6.9615042    1.4638960 *
  49 C       2.8485574 *  2.3686335 *  6.7078392    6.6722000    2.4672412 *
  50 C       6.5185314    6.7078392    2.3686335 *  2.4672412 *  6.6722000  
  51 C       5.7966432    4.1236464    5.7966432    4.5245875    5.4894116  
  52 C       4.1236464    5.7966432    4.1236464    5.4894116    4.5245875  
  53 C       6.1458168    5.2171909    4.8359540    3.5825225    6.1458168  
  54 C       3.5825225    4.8359540    5.2171909    6.1458168    3.5825225  
  55 C       4.8359540    3.5825225    6.1458168    5.4186781    4.6090628  
  56 C       5.2171909    6.1458168    3.5825225    4.6090628    5.4186781  
  57 C       5.4894116    5.4186781    4.6090627    4.1236464    5.7966432  
  58 C       4.5245875    4.6090627    5.4186781    5.7966432    4.1236464  
  59 C       4.6090627    4.5245875    5.4894116    5.2171909    4.8359540  
  60 C       5.4186781    5.4894116    4.5245875    4.8359540    5.2171909  

               41 C         42 C         43 C         44 C         45 C     

   1 C       3.5825225    6.1458168    4.1236464    5.7966432    2.4672412 *
   2 C       6.1458168    3.5825225    5.7966432    4.1236464    6.6722000  
   3 C       5.4186781    4.6090627    2.4672412 *  6.6722000    4.1236464  
   4 C       4.6090627    5.4186781    6.6722000    2.4672412 *  5.7966432  
   5 C       4.1236464    5.7966432    4.5245875    5.4894116    3.7046867  
   6 C       5.7966432    4.1236464    5.4894116    4.5245875    6.0729587  
   7 C       5.2171909    4.8359540    3.7046867    6.0729587    4.5245875  
   8 C       4.8359540    5.2171909    6.0729587    3.7046867    5.4894116  
   9 C       4.5245875    5.4894116    2.8485574 *  6.5185315    2.8485574 *
  10 C       5.4894116    4.5245875    6.5185315    2.8485574 *  6.5185315  
  11 C       3.7046868    6.0729587    5.4894116    4.5245875    4.1236464  
  12 C       6.0729587    3.7046868    4.5245875    5.4894116    5.7966432  
  13 C       5.7966432    4.1236464    4.1236464    5.7966432    5.4894116  
  14 C       4.1236464    5.7966432    5.7966432    4.1236464    4.5245875  
  15 C       2.4672412 *  6.6722000    6.0729587    3.7046868    3.5825225  
  16 C       6.6722000    2.4672412 *  3.7046868    6.0729587    6.1458168  
  17 C       6.5185314    2.8485574 *  3.5825225    6.1458168    6.0729587  
  18 C       2.8485574 *  6.5185314    6.1458168    3.5825225    3.7046868  
  19 C       2.8485574 *  6.5185314    6.6722000    2.4672412 *  4.5245875  
  20 C       6.5185314    2.8485574 *  2.4672412 *  6.6722000    5.4894116  
  21 C       6.6722000    2.4672412 *  4.5245875    5.4894116    6.6722000  
  22 C       2.4672412 *  6.6722000    5.4894116    4.5245875    2.4672412 *
  23 C       4.5245875    5.4894116    5.7966432    4.1236464    5.2171909  
  24 C       5.4894116    4.5245875    4.1236464    5.7966432    4.8359540  
  25 C       5.4894116    4.5245875    5.2171909    4.8359540    5.7966432  
  26 C       4.5245875    5.4894116    4.8359540    5.2171909    4.1236464  
  27 C       4.1236464    5.7966432    6.5185315    2.8485574 *  5.4186781  
  28 C       5.7966432    4.1236464    2.8485574 *  6.5185315    4.6090628  
  29 C       6.0729587    3.7046867    5.4186781    4.6090628    6.5185315  
  30 C       3.7046867    6.0729587    4.6090628    5.4186781    2.8485574 *
  31 C       6.1458168    3.5825225    1.4638960 *  6.9615042    4.8359540  
  32 C       3.5825225    6.1458168    6.9615042    1.4638960 *  5.2171909  
  33 C       2.3686335 *  6.7078392    4.8359540    5.2171909    1.4638960 *
  34 C       6.7078392    2.3686335 *  5.2171909    4.8359540    6.9615042  
  35 C       6.6722000    2.4672412 *  2.3686335 *  6.7078392    5.7966432  
  36 C       2.4672412 *  6.6722000    6.7078392    2.3686335 *  4.1236464  
  37 C       1.4638960 *  6.9615042    5.7966432    4.1236464    2.3686335 *
  38 C       6.9615042    1.4638960 *  4.1236464    5.7966432    6.7078392  
  39 C       6.9776962    1.3846615 *  2.3686335 *  6.7078392    6.1458168  
  40 C       1.3846615 *  6.9776962    6.7078392    2.3686335 *  3.5825225  
  41 C       0.0000000    7.1137565    6.1458168    3.5825225    2.3686335 *
  42 C       7.1137565    0.0000000    3.5825225    6.1458168    6.7078392  
  43 C       6.1458168    3.5825225    0.0000000    7.1137565    4.6090628  
  44 C       3.5825225    6.1458168    7.1137565    0.0000000    5.4186781  
  45 C       2.3686335 *  6.7078392    4.6090628    5.4186781    0.0000000  
  46 C       6.7078392    2.3686335 *  5.4186781    4.6090628    7.1137565  
  47 C       6.6722000    2.4672412 *  1.4638960 *  6.9615042    5.4894116  
  48 C       2.4672412 *  6.6722000    6.9615042    1.4638960 *  4.5245875  
  49 C       1.4638960 *  6.9615042    5.4894116    4.5245875    1.4638960 *
  50 C       6.9615042    1.4638960 *  4.5245875    5.4894116    6.9615042  
  51 C       4.5245875    5.4894116    2.4672412 *  6.6722000    2.4672412 *
  52 C       5.4894116    4.5245875    6.6722000    2.4672412 *  6.6722000  
  53 C       5.4186781    4.6090628    1.3846615 *  6.9776962    3.5825225  
  54 C       4.6090628    5.4186781    6.9776962    1.3846615 *  6.1458168  
  55 C       3.5825225    6.1458168    3.5825225    6.1458168    1.3846615 *
  56 C       6.1458168    3.5825225    6.1458168    3.5825225    6.9776962  
  57 C       5.2171909    4.8359540    2.4672412 *  6.6722000    3.5825225  
  58 C       4.8359540    5.2171909    6.6722000    2.4672412 *  6.1458168  
  59 C       4.1236464    5.7966432    3.5825225    6.1458168    2.4672412 *
  60 C       5.7966432    4.1236464    6.1458168    3.5825225    6.6722000  

               46 C         47 C         48 C         49 C         50 C     

   1 C       6.6722000    5.2171909    4.8359540    3.5825225    6.1458168  
   2 C       2.4672412 *  4.8359540    5.2171909    6.1458168    3.5825225  
   3 C       5.7966432    3.5825225    6.1458168    5.2171909    4.8359540  
   4 C       4.1236464    6.1458168    3.5825225    4.8359540    5.2171909  
   5 C       6.0729587    5.4186781    4.6090627    4.5245875    5.4894116  
   6 C       3.7046867    4.6090627    5.4186781    5.4894116    4.5245875  
   7 C       5.4894116    4.5245875    5.4894116    5.4186781    4.6090627  
   8 C       4.5245875    5.4894116    4.5245875    4.6090627    5.4186781  
   9 C       6.5185315    4.1236464    5.7966432    4.1236464    5.7966432  
  10 C       2.8485574 *  5.7966432    4.1236464    5.7966432    4.1236464  
  11 C       5.7966432    6.1458168    3.5825225    4.5245875    5.4894116  
  12 C       4.1236464    3.5825225    6.1458168    5.4894116    4.5245875  
  13 C       4.5245875    4.5245875    5.4894116    6.1458168    3.5825225  
  14 C       5.4894116    5.4894116    4.5245875    3.5825225    6.1458168  
  15 C       6.1458168    6.6722000    2.4672412 *  3.5825225    6.1458168  
  16 C       3.5825225    2.4672412 *  6.6722000    6.1458168    3.5825225  
  17 C       3.7046868    3.5825225    6.1458168    6.6722000    2.4672412 *
  18 C       6.0729587    6.1458168    3.5825225    2.4672412 *  6.6722000  
  19 C       5.4894116    6.9776962    1.3846615 *  4.1236464    5.7966432  
  20 C       4.5245875    1.3846615 *  6.9776962    5.7966432    4.1236464  
  21 C       2.4672412 *  4.1236464    5.7966432    6.9776962    1.3846615 *
  22 C       6.6722000    5.7966432    4.1236464    1.3846615 *  6.9776962  
  23 C       4.8359540    6.1458168    3.5825225    5.4186781    4.6090627  
  24 C       5.2171909    3.5825225    6.1458168    4.6090627    5.4186781  
  25 C       4.1236464    5.4186781    4.6090627    6.1458168    3.5825225  
  26 C       5.7966432    4.6090627    5.4186781    3.5825225    6.1458168  
  27 C       4.6090628    6.6722000    2.4672412 *  5.2171909    4.8359540  
  28 C       5.4186781    2.4672412 *  6.6722000    4.8359540    5.2171909  
  29 C       2.8485574 *  5.2171909    4.8359540    6.6722000    2.4672412 *
  30 C       6.5185315    4.8359540    5.2171909    2.4672412 *  6.6722000  
  31 C       5.2171909    2.3686335 *  6.7078392    5.7966432    4.1236464  
  32 C       4.8359540    6.7078392    2.3686335 *  4.1236464    5.7966432  
  33 C       6.9615042    5.7966432    4.1236464    2.3686335 *  6.7078392  
  34 C       1.4638960 *  4.1236464    5.7966432    6.7078392    2.3686335 *
  35 C       4.1236464    2.3686335 *  6.7078392    6.5185314    2.8485574 *
  36 C       5.7966432    6.7078392    2.3686335 *  2.8485574 *  6.5185314  
  37 C       6.7078392    6.5185314    2.8485574 *  2.3686335 *  6.7078392  
  38 C       2.3686335 *  2.8485574 *  6.5185314    6.7078392    2.3686335 *
  39 C       3.5825225    1.4638960 *  6.9615042    6.6722000    2.4672412 *
  40 C       6.1458168    6.9615042    1.4638960 *  2.4672412 *  6.6722000  
  41 C       6.7078392    6.6722000    2.4672412 *  1.4638960 *  6.9615042  
  42 C       2.3686335 *  2.4672412 *  6.6722000    6.9615042    1.4638960 *
  43 C       5.4186781    1.4638960 *  6.9615042    5.4894116    4.5245875  
  44 C       4.6090628    6.9615042    1.4638960 *  4.5245875    5.4894116  
  45 C       7.1137565    5.4894116    4.5245875    1.4638960 *  6.9615042  
  46 C       0.0000000    4.5245875    5.4894116    6.9615042    1.4638960 *
  47 C       4.5245875    0.0000000    7.1137565    6.0729587    3.7046868  
  48 C       5.4894116    7.1137565    0.0000000    3.7046868    6.0729587  
  49 C       6.9615042    6.0729587    3.7046868    0.0000000    7.1137565  
  50 C       1.4638960 *  3.7046868    6.0729587    7.1137565    0.0000000  
  51 C       6.6722000    3.7046867    6.0729587    3.7046867    6.0729587  
  52 C       2.4672412 *  6.0729587    3.7046867    6.0729587    3.7046867  
  53 C       6.1458168    2.4672412 *  6.6722000    4.5245875    5.4894116  
  54 C       3.5825225    6.6722000    2.4672412 *  5.4894116    4.5245875  
  55 C       6.9776962    4.5245875    5.4894116    2.4672412 *  6.6722000  
  56 C       1.3846615 *  5.4894116    4.5245875    6.6722000    2.4672412 *
  57 C       6.1458168    2.8485574 *  6.5185314    4.1236464    5.7966432  
  58 C       3.5825225    6.5185314    2.8485574 *  5.7966432    4.1236464  
  59 C       6.6722000    4.1236464    5.7966432    2.8485574 *  6.5185314  
  60 C       2.4672412 *  5.7966432    4.1236464    6.5185314    2.8485574 *

               51 C         52 C         53 C         54 C         55 C     

   1 C       2.4672412 *  6.6722000    3.7046868    6.0729587    2.8485574 *
   2 C       6.6722000    2.4672412 *  6.0729587    3.7046868    6.5185315  
   3 C       2.4672412 *  6.6722000    2.8485574 *  6.5185315    3.7046868  
   4 C       6.6722000    2.4672412 *  6.5185315    2.8485574 *  6.0729587  
   5 C       3.5825225    6.1458168    4.5245875    5.4894116    4.1236464  
   6 C       6.1458168    3.5825225    5.4894116    4.5245875    5.7966432  
   7 C       3.5825225    6.1458168    4.1236464    5.7966432    4.5245875  
   8 C       6.1458168    3.5825225    5.7966432    4.1236464    5.4894116  
   9 C       1.3846615 *  6.9776962    2.4672412 *  6.6722000    2.4672412 *
  10 C       6.9776962    1.3846615 *  6.6722000    2.4672412 *  6.6722000  
  11 C       4.6090628    5.4186781    5.4894116    4.5245876    4.8359540  
  12 C       5.4186781    4.6090628    4.5245876    5.4894116    5.2171909  
  13 C       4.6090628    5.4186781    4.8359540    5.2171909    5.4894116  
  14 C       5.4186781    4.6090628    5.2171909    4.8359540    4.5245876  
  15 C       4.8359540    5.2171909    5.7966432    4.1236464    4.6090628  
  16 C       5.2171909    4.8359540    4.1236464    5.7966432    5.4186781  
  17 C       4.8359540    5.2171909    4.6090628    5.4186781    5.7966432  
  18 C       5.2171909    4.8359540    5.4186781    4.6090628    4.1236464  
  19 C       5.7966432    4.1236464    6.5185315    2.8485574 *  5.4894116  
  20 C       4.1236464    5.7966432    2.8485574 *  6.5185315    4.5245875  
  21 C       5.7966432    4.1236464    5.4894116    4.5245875    6.5185315  
  22 C       4.1236464    5.7966432    4.5245875    5.4894116    2.8485574 *
  23 C       5.4894116    4.5245875    6.0729587    3.7046868    5.7966432  
  24 C       4.5245875    5.4894116    3.7046868    6.0729587    4.1236464  
  25 C       5.4894116    4.5245875    5.7966432    4.1236464    6.0729587  
  26 C       4.5245875    5.4894116    4.1236464    5.7966432    3.7046868  
  27 C       6.1458168    3.5825225    6.6722000    2.4672412 *  6.1458168  
  28 C       3.5825225    6.1458168    2.4672412 *  6.6722000    3.5825225  
  29 C       6.1458168    3.5825225    6.1458168    3.5825225    6.6722000  
  30 C       3.5825225    6.1458168    3.5825225    6.1458168    2.4672412 *
  31 C       2.8485574 *  6.5185315    2.4672412 *  6.6722000    4.1236464  
  32 C       6.5185315    2.8485574 *  6.6722000    2.4672412 *  5.7966432  
  33 C       2.8485574 *  6.5185315    4.1236464    5.7966432    2.4672412 *
  34 C       6.5185315    2.8485574 *  5.7966432    4.1236464    6.6722000  
  35 C       4.1236464    5.7966432    3.5825225    6.1458168    5.2171909  
  36 C       5.7966432    4.1236464    6.1458168    3.5825225    4.8359540  
  37 C       4.1236464    5.7966432    5.2171909    4.8359540    3.5825225  
  38 C       5.7966432    4.1236464    4.8359540    5.2171909    6.1458168  
  39 C       4.5245875    5.4894116    3.5825225    6.1458168    5.4186781  
  40 C       5.4894116    4.5245875    6.1458168    3.5825225    4.6090628  
  41 C       4.5245875    5.4894116    5.4186781    4.6090628    3.5825225  
  42 C       5.4894116    4.5245875    4.6090628    5.4186781    6.1458168  
  43 C       2.4672412 *  6.6722000    1.3846615 *  6.9776962    3.5825225  
  44 C       6.6722000    2.4672412 *  6.9776962    1.3846615 *  6.1458168  
  45 C       2.4672412 *  6.6722000    3.5825225    6.1458168    1.3846615 *
  46 C       6.6722000    2.4672412 *  6.1458168    3.5825225    6.9776962  
  47 C       3.7046867    6.0729587    2.4672412 *  6.6722000    4.5245875  
  48 C       6.0729587    3.7046867    6.6722000    2.4672412 *  5.4894116  
  49 C       3.7046867    6.0729587    4.5245875    5.4894116    2.4672412 *
  50 C       6.0729587    3.7046867    5.4894116    4.5245875    6.6722000  
  51 C       0.0000000    7.1137565    1.4638960 *  6.9615042    1.4638960 *
  52 C       7.1137565    0.0000000    6.9615042    1.4638960 *  6.9615042  
  53 C       1.4638960 *  6.9615042    0.0000000    7.1137565    2.3686335 *
  54 C       6.9615042    1.4638960 *  7.1137565    0.0000000    6.7078393  
  55 C       1.4638960 *  6.9615042    2.3686335 *  6.7078393    0.0000000  
  56 C       6.9615042    1.4638960 *  6.7078393    2.3686335 *  7.1137565  
  57 C       2.3686335 *  6.7078392    1.4638960 *  6.9615042    2.3686335 *
  58 C       6.7078392    2.3686335 *  6.9615042    1.4638960 *  6.7078392  
  59 C       2.3686335 *  6.7078392    2.3686335 *  6.7078392    1.4638960 *
  60 C       6.7078392    2.3686335 *  6.7078392    2.3686335 *  6.9615042  

               56 C         57 C         58 C         59 C         60 C     

   1 C       6.5185315    4.5245875    5.4894116    4.1236464    5.7966432  
   2 C       2.8485574 *  5.4894116    4.5245875    5.7966432    4.1236464  
   3 C       6.0729587    4.1236464    5.7966432    4.5245875    5.4894116  
   4 C       3.7046868    5.7966432    4.1236464    5.4894116    4.5245875  
   5 C       5.7966432    5.4186781    4.6090627    5.2171909    4.8359540  
   6 C       4.1236464    4.6090627    5.4186781    4.8359540    5.2171909  
   7 C       5.4894116    5.2171909    4.8359540    5.4186781    4.6090627  
   8 C       4.5245875    4.8359540    5.2171909    4.6090627    5.4186781  
   9 C       6.6722000    3.5825225    6.1458168    3.5825225    6.1458168  
  10 C       2.4672412 *  6.1458168    3.5825225    6.1458168    3.5825225  
  11 C       5.2171909    6.1458168    3.5825225    5.7966432    4.1236464  
  12 C       4.8359540    3.5825225    6.1458168    4.1236464    5.7966432  
  13 C       4.5245876    5.7966432    4.1236464    6.1458168    3.5825225  
  14 C       5.4894116    4.1236464    5.7966432    3.5825225    6.1458168  
  15 C       5.4186781    6.1458168    3.5825225    5.4894116    4.5245875  
  16 C       4.6090628    3.5825225    6.1458168    4.5245875    5.4894116  
  17 C       4.1236464    5.4894116    4.5245875    6.1458168    3.5825225  
  18 C       5.7966432    4.5245875    5.4894116    3.5825225    6.1458168  
  19 C       4.5245875    6.6722000    2.4672412 *  6.0729587    3.7046868  
  20 C       5.4894116    2.4672412 *  6.6722000    3.7046868    6.0729587  
  21 C       2.8485574 *  6.0729587    3.7046868    6.6722000    2.4672412 *
  22 C       6.5185315    3.7046868    6.0729587    2.4672412 *  6.6722000  
  23 C       4.1236464    6.6722000    2.4672412 *  6.5185314    2.8485574 *
  24 C       5.7966432    2.4672412 *  6.6722000    2.8485574 *  6.5185314  
  25 C       3.7046868    6.5185314    2.8485574 *  6.6722000    2.4672412 *
  26 C       6.0729587    2.8485574 *  6.5185314    2.4672412 *  6.6722000  
  27 C       3.5825225    6.9776962    1.3846615 *  6.6722000    2.4672412 *
  28 C       6.1458168    1.3846615 *  6.9776962    2.4672412 *  6.6722000  
  29 C       2.4672412 *  6.6722000    2.4672412 *  6.9776962    1.3846615 *
  30 C       6.6722000    2.4672412 *  6.6722000    1.3846615 *  6.9776962  
  31 C       5.7966432    3.7046867    6.0729587    4.5245875    5.4894116  
  32 C       4.1236464    6.0729587    3.7046867    5.4894116    4.5245875  
  33 C       6.6722000    4.5245875    5.4894116    3.7046867    6.0729587  
  34 C       2.4672412 *  5.4894116    4.5245875    6.0729587    3.7046867  
  35 C       4.8359540    4.5245875    5.4894116    5.4186781    4.6090627  
  36 C       5.2171909    5.4894116    4.5245875    4.6090627    5.4186781  
  37 C       6.1458168    5.4186781    4.6090627    4.5245875    5.4894116  
  38 C       3.5825225    4.6090627    5.4186781    5.4894116    4.5245875  
  39 C       4.6090628    4.1236464    5.7966432    5.2171909    4.8359540  
  40 C       5.4186781    5.7966432    4.1236464    4.8359540    5.2171909  
  41 C       6.1458168    5.2171909    4.8359540    4.1236464    5.7966432  
  42 C       3.5825225    4.8359540    5.2171909    5.7966432    4.1236464  
  43 C       6.1458168    2.4672412 *  6.6722000    3.5825225    6.1458168  
  44 C       3.5825225    6.6722000    2.4672412 *  6.1458168    3.5825225  
  45 C       6.9776962    3.5825225    6.1458168    2.4672412 *  6.6722000  
  46 C       1.3846615 *  6.1458168    3.5825225    6.6722000    2.4672412 *
  47 C       5.4894116    2.8485574 *  6.5185314    4.1236464    5.7966432  
  48 C       4.5245875    6.5185314    2.8485574 *  5.7966432    4.1236464  
  49 C       6.6722000    4.1236464    5.7966432    2.8485574 *  6.5185314  
  50 C       2.4672412 *  5.7966432    4.1236464    6.5185314    2.8485574 *
  51 C       6.9615042    2.3686335 *  6.7078392    2.3686335 *  6.7078392  
  52 C       1.4638960 *  6.7078392    2.3686335 *  6.7078392    2.3686335 *
  53 C       6.7078393    1.4638960 *  6.9615042    2.3686335 *  6.7078392  
  54 C       2.3686335 *  6.9615042    1.4638960 *  6.7078392    2.3686335 *
  55 C       7.1137565    2.3686335 *  6.7078392    1.4638960 *  6.9615042  
  56 C       0.0000000    6.7078392    2.3686335 *  6.9615042    1.4638960 *
  57 C       6.7078392    0.0000000    7.1137565    1.4638960 *  6.9615041  
  58 C       2.3686335 *  7.1137565    0.0000000    6.9615041    1.4638960 *
  59 C       6.9615042    1.4638960 *  6.9615041    0.0000000    7.1137565  
  60 C       1.4638960 *  6.9615041    1.4638960 *  7.1137565    0.0000000  

  * ... LESS THAN  3.000


 TOTAL NUMBER OF BASIS SET SHELLS             =   60
 NUMBER OF CARTESIAN GAUSSIAN BASIS FUNCTIONS =  240
 NUMBER OF ELECTRONS                          =  240
 CHARGE OF MOLECULE                           =    0
 SPIN MULTIPLICITY                            =    1
 NUMBER OF OCCUPIED ORBITALS (ALPHA)          =  120
 NUMBER OF OCCUPIED ORBITALS (BETA )          =  120
 TOTAL NUMBER OF ATOMS                        =   60
 THE NUCLEAR REPULSION ENERGY IS     8310.4082039778

 THE PARAMETERS USED IN THIS CALCULATION ARE DESCRIBED IN:

  C: (AM1): M.J.S. DEWAR ET AL, J. AM. CHEM. SOC. 107 3902-3909 (1985)          

 THERE ARE   60 HEAVY AND    0 LIGHT ATOMS,
 YIELDING A TOTAL OF    177000 MOPAC 2E- INTEGRALS.

     $CONTRL OPTIONS
     ---------------
 SCFTYP=RHF          RUNTYP=HESSIAN      EXETYP=RUN     
 MPLEVL=       0     CITYP =NONE         CCTYP =NONE         VBTYP =NONE    
 DFTTYP=NONE         TDDFT =NONE    
 MULT  =       1     ICHARG=       0     NZVAR =       0     COORD =PRINAXIS
 PP    =NONE         RELWFN=NONE         LOCAL =NONE         NUMGRD=       F
 ISPHER=      -1     NOSYM =       0     MAXIT =      30     UNITS =ANGS    
 PLTORB=       F     MOLPLT=       F     AIMPAC=       F     FRIEND=        
 NPRINT=       7     IREST =       0     GEOM  =INPUT   
 NORMF =       0     NORMP =       0     ITOL  =      20     ICUT  =       9
 INTTYP=BEST         GRDTYP=BEST         QMTTOL= 1.0E-06

     $SYSTEM OPTIONS
     ---------------
  REPLICATED MEMORY=     1000000 WORDS (ON EVERY NODE).
 DISTRIBUTED MEMDDI=           0 MILLION WORDS IN AGGREGATE,
 MEMDDI DISTRIBUTED OVER   1 PROCESSORS IS           0 WORDS/PROCESSOR.
 TOTAL MEMORY REQUESTED ON EACH PROCESSOR=     1000000 WORDS.
 TIMLIM=      525600.00 MINUTES, OR     365.0 DAYS.
 PARALL= F  BALTYP=  DLB     KDIAG=    0  COREFL= F
 MXSEQ2=     300 MXSEQ3=     150

          ----------------
          PROPERTIES INPUT
          ----------------

     MOMENTS            FIELD           POTENTIAL          DENSITY
 IEMOM =       1   IEFLD =       0   IEPOT =       0   IEDEN =       0
 WHERE =COMASS     WHERE =NUCLEI     WHERE =NUCLEI     WHERE =NUCLEI  
 OUTPUT=BOTH       OUTPUT=BOTH       OUTPUT=BOTH       OUTPUT=BOTH    
 IEMINT=       0   IEFINT=       0                     IEDINT=       0
                                                       MORB  =       0
          EXTRAPOLATION IN EFFECT
 ORBITAL PRINTING OPTION: NPREO=     1   240     2     1

     -------------------------------
     INTEGRAL TRANSFORMATION OPTIONS
     -------------------------------
     NWORD  =            0
     CUTOFF = 1.0E-09     MPTRAN =       0
     DIRTRF =       F     AOINTS =DUP     

          ----------------------
          INTEGRAL INPUT OPTIONS
          ----------------------
 NOPK  =       1 NORDER=       0 SCHWRZ=       T

     ------------------------------------------
     THE POINT GROUP IS CNH, NAXIS= 2, ORDER= 4
     ------------------------------------------

     DIMENSIONS OF THE SYMMETRY SUBSPACES ARE
 AG  =   62     AU  =   58     BU  =   62     BG  =   58

 ..... DONE SETTING UP THE RUN .....
 STEP CPU TIME =     0.02 TOTAL CPU TIME =        0.0 (    0.0 MIN)
 TOTAL WALL CLOCK TIME=        0.0 SECONDS, CPU UTILIZATION IS 100.00%

     ---------------------------------
     HESSIAN MATRIX CONTROL PARAMETERS
     ---------------------------------
     METHOD=SEMINUM    NVIB  =       2   VIBSIZ= 0.01000
     RDHESS=       F   PURIFY=       F   PRTIFC=       F
     VIBANL=       T   DECOMP=       F   PROJCT=       F
     SCLFAC= 1.00000   PRTSCN=       F   NPRT  =       0
     PULCOR=       F   NPUN  =       0   REDOVB=       T
     THERMOCHEMISTRY WILL BE PRINTED FOR    1 TEMPERATURES:
      298.15000
1   ATOM  0
                                        -------------------
   COORD  0                             NUCLEAR COORDINATES
                                        -------------------
     VIB  0

                       ATOM             X              Y              Z

                 1  C                6.249993      -1.052469       2.238034
                 2  C               -6.249993       1.052469      -2.238034
                 3  C                6.249993      -1.052469      -2.238034
                 4  C               -6.249993       1.052469       2.238034
                 5  C                5.518317      -3.579649       1.383181
                 6  C               -5.518317       3.579649      -1.383181
                 7  C                5.518317      -3.579649      -1.383181
                 8  C               -5.518317       3.579649       1.383181
                 9  C                6.702194       0.509413       0.000000
                10  C               -6.702194      -0.509413       0.000000
                11  C                3.696151      -4.926786       2.691497
                12  C               -3.696151       4.926786      -2.691497
                13  C                3.696151      -4.926786      -2.691497
                14  C               -3.696151       4.926786       2.691497
                15  C                2.501391      -3.823830       4.929531
                16  C               -2.501391       3.823830      -4.929531
                17  C                2.501391      -3.823830      -4.929531
                18  C               -2.501391       3.823830       4.929531
                19  C               -0.163448      -4.566390       4.929531
                20  C                0.163448       4.566390      -4.929531
                21  C               -0.163448      -4.566390      -4.929531
                22  C                0.163448       4.566390       4.929531
                23  C                1.769715      -6.351010       1.308315
                24  C               -1.769715       6.351010      -1.308315
                25  C                1.769715      -6.351010      -1.308315
                26  C               -1.769715       6.351010       1.308315
                27  C               -0.615649      -6.128273       2.691497
                28  C                0.615649       6.128273      -2.691497
                29  C               -0.615649      -6.128273      -2.691497
                30  C                0.615649       6.128273       2.691497
                31  C                5.119900      -0.009212      -4.354933
                32  C               -5.119900       0.009212       4.354933
                33  C                5.119900      -0.009212       4.354933
                34  C               -5.119900       0.009212      -4.354933
                35  C                3.193464      -1.433436      -5.738114
                36  C               -3.193464       1.433436       5.738114
                37  C                3.193464      -1.433436       5.738114
                38  C               -3.193464       1.433436      -5.738114
                39  C                1.260301       0.351184      -6.592967
                40  C               -1.260301      -0.351184       6.592967
                41  C                1.260301       0.351184       6.592967
                42  C               -1.260301      -0.351184      -6.592967
                43  C                4.377340       2.655627      -4.354933
                44  C               -4.377340      -2.655627       4.354933
                45  C                4.377340       2.655627       4.354933
                46  C               -4.377340      -2.655627      -4.354933
                47  C                1.991977       2.878364      -5.738114
                48  C               -1.991977      -2.878364       5.738114
                49  C                1.991977       2.878364       5.738114
                50  C               -1.991977      -2.878364      -5.738114
                51  C                5.999826       3.030016       0.000000
                52  C               -5.999826      -3.030016       0.000000
                53  C                4.805065       4.132971      -2.238034
                54  C               -4.805065      -4.132971       2.238034
                55  C                4.805065       4.132971       2.238034
                56  C               -4.805065      -4.132971      -2.238034
                57  C                2.871902       5.917591      -1.383181
                58  C               -2.871902      -5.917591       1.383181
                59  C                2.871902       5.917591       1.383181
                60  C               -2.871902      -5.917591      -1.383181

          ********************
          1 ELECTRON INTEGRALS
          ********************

          **************************
          1 AND 2 ELECTRON INTEGRALS
          **************************

 MOPAC ONE- AND TWO-ELECTRON INTEGRALS REQUIRE    234840 WORDS.
 ...... END OF ONE- AND TWO-ELECTRON INTEGRALS......
 STEP CPU TIME =     0.01 TOTAL CPU TIME =        0.0 (    0.0 MIN)
 TOTAL WALL CLOCK TIME=        0.0 SECONDS, CPU UTILIZATION IS  75.00%
 ...... END OF ONE-ELECTRON INTEGRALS ......
 STEP CPU TIME =     0.00 TOTAL CPU TIME =        0.0 (    0.0 MIN)
 TOTAL WALL CLOCK TIME=        0.0 SECONDS, CPU UTILIZATION IS  75.00%

          -------------
          GUESS OPTIONS
          -------------
          GUESS =HUCKEL            NORB  =       0          NORDER=       0
          MIX   =       F          PRTMO =       F          PUNMO =       F
          TOLZ  = 1.0E-08          TOLE  = 1.0E-05
          SYMDEN=       F          PURIFY=       F

[...]
 59   C            X -0.03785495 -0.02974641  0.03598909  0.01361895  0.03440973
                   Y  0.00657496  0.00919927 -0.00459746 -0.00593652 -0.01198292
                   Z  0.02512961  0.02043006 -0.02445363 -0.01605017 -0.01805102
 60   C            X -0.03785495  0.02974642  0.03598909  0.01361895  0.03440973
                   Y  0.00657496 -0.00919927 -0.00459746 -0.00593652 -0.01198292
                   Z  0.02512961 -0.02043007 -0.02445362 -0.01605017 -0.01805102

 TRANS. SAYVETZ    X  0.00000000  0.00000000 -0.00000000  0.00448982 -0.00205846
                   Y  0.00000000 -0.00000000 -0.00000000 -0.00217093  0.00277884
                   Z  0.00000784 -0.00000000  0.00104378  0.00000000 -0.00000000
               TOTAL  0.00000784  0.00000000  0.00104378  0.00498712  0.00345821

   ROT. SAYVETZ    X  0.00000000  0.00000000 -0.00000000 -0.00000000 -0.00000000
                   Y -0.00000000  0.00000000  0.00000000  0.00000000 -0.00000001
                   Z  0.00000000  0.00171984 -0.00000000  0.00000000  0.00000000
               TOTAL  0.00000000  0.00171984  0.00000000  0.00000000  0.00000001

                        176         177         178         179         180
       FREQUENCY:      1816.51     1816.55     1816.57     1816.58     1816.66  
        SYMMETRY:         AG          AG          AG          BG          BG  
    REDUCED MASS:     12.00000    12.00000    12.00000    12.00000    12.00000
    IR INTENSITY:      0.00000     0.00000     0.00000     0.00000     0.00000

  1   C            X  0.02073784  0.00161084 -0.00559515  0.01675857 -0.00120624
                   Y -0.03060646 -0.00729724  0.00054446 -0.00970549  0.00587458
                   Z -0.06045707  0.00373929  0.00488594 -0.03723215  0.00813079
  2   C            X -0.02073784 -0.00161084  0.00559515 -0.01675857  0.00120624
                   Y  0.03060646  0.00729724 -0.00054446  0.00970549 -0.00587458
                   Z  0.06045707 -0.00373929 -0.00488594  0.03723215 -0.00813079
  3   C            X  0.02073784  0.00161084 -0.00559515 -0.01675857  0.00120624
                   Y -0.03060646 -0.00729724  0.00054446  0.00970549 -0.00587458
                   Z  0.06045707 -0.00373929 -0.00488594 -0.03723215  0.00813079
  4   C            X -0.02073784 -0.00161084  0.00559515  0.01675857 -0.00120624
                   Y  0.03060646  0.00729724 -0.00054446 -0.00970549  0.00587458
                   Z -0.06045707  0.00373929  0.00488594  0.03723215 -0.00813079
  5   C            X  0.00748746 -0.01521819  0.02110030 -0.04106194 -0.00669753
                   Y  0.01480014 -0.01591108  0.02117272 -0.03736219 -0.00980181
                   Z -0.00437947  0.01541297 -0.02780838  0.03128555  0.00080040
  6   C            X -0.00748746  0.01521819 -0.02110030  0.04106194  0.00669753
                   Y -0.01480014  0.01591108 -0.02117272  0.03736219  0.00980181
                   Z  0.00437947 -0.01541297  0.02780838 -0.03128555 -0.00080040
  7   C            X  0.00748746 -0.01521819  0.02110030  0.04106194  0.00669753
                   Y  0.01480014 -0.01591108  0.02117272  0.03736219  0.00980181
                   Z  0.00437947 -0.01541297  0.02780838  0.03128555  0.00080040
  8   C            X -0.00748746  0.01521819 -0.02110030 -0.04106194 -0.00669753
                   Y -0.01480014  0.01591108 -0.02117272 -0.03736219 -0.00980181
                   Z -0.00437947  0.01541297 -0.02780838 -0.03128555 -0.00080040
  9   C            X -0.00807201 -0.00787714  0.00716505 -0.00000000 -0.00000000
                   Y  0.01773199  0.06469278 -0.04634726  0.00000000  0.00000000
                   Z -0.00000000 -0.00000000  0.00000000  0.00942881 -0.00701673
 10   C            X  0.00807201  0.00787714 -0.00716505 -0.00000000 -0.00000000
                   Y -0.01773199 -0.06469278  0.04634726  0.00000000  0.00000000
                   Z -0.00000000 -0.00000000  0.00000000 -0.00942881  0.00701673
 11   C            X -0.00128609  0.01909920 -0.01841047  0.05781318  0.00362004
                   Y -0.00746628  0.00902639 -0.01105463  0.03183796  0.00593595
                   Z -0.00351332 -0.01381479  0.01971551 -0.02969377 -0.00007825
 12   C            X  0.00128609 -0.01909920  0.01841047 -0.05781318 -0.00362004
                   Y  0.00746628 -0.00902639  0.01105463 -0.03183796 -0.00593595
                   Z  0.00351332  0.01381479 -0.01971551  0.02969377  0.00007825
 13   C            X -0.00128609  0.01909920 -0.01841047 -0.05781318 -0.00362004
                   Y -0.00746628  0.00902639 -0.01105463 -0.03183796 -0.00593595
                   Z  0.00351332  0.01381479 -0.01971551 -0.02969377 -0.00007825
 14   C            X  0.00128609 -0.01909920  0.01841047  0.05781318  0.00362004
                   Y  0.00746628 -0.00902639  0.01105463  0.03183796  0.00593595
                   Z -0.00351332 -0.01381479  0.01971551  0.02969377  0.00007825
 15   C            X  0.01484838  0.00733181  0.01587585 -0.00488069 -0.01514773
                   Y  0.04593427  0.00080810  0.02381907 -0.00719990 -0.04771625
                   Z  0.02405034  0.00084610  0.00868689  0.00348879 -0.02256989
 16   C            X -0.01484838 -0.00733181 -0.01587585  0.00488069  0.01514773
                   Y -0.04593427 -0.00080810 -0.02381907  0.00719990  0.04771625
                   Z -0.02405034 -0.00084610 -0.00868689 -0.00348879  0.02256989
 17   C            X  0.01484838  0.00733181  0.01587585  0.00488069  0.01514773
                   Y  0.04593427  0.00080810  0.02381907  0.00719990  0.04771625
                   Z -0.02405034 -0.00084610 -0.00868689  0.00348879 -0.02256989
 18   C            X -0.01484838 -0.00733181 -0.01587585 -0.00488069 -0.01514773
                   Y -0.04593427 -0.00080810 -0.02381907 -0.00719990 -0.04771625
                   Z  0.02405034  0.00084610  0.00868689 -0.00348879  0.02256989
 19   C            X  0.00444200 -0.03083177 -0.03267992 -0.02767182 -0.02665149
                   Y -0.01401290  0.02383227  0.01973162  0.02598433  0.02058920
                   Z -0.00803549  0.01977374  0.01400250  0.02095012  0.00901356
 20   C            X -0.00444200  0.03083177  0.03267992  0.02767182  0.02665149
                   Y  0.01401290 -0.02383227 -0.01973162 -0.02598433 -0.02058920
                   Z  0.00803549 -0.01977374 -0.01400250 -0.02095012 -0.00901356
 21   C            X  0.00444200 -0.03083177 -0.03267992  0.02767182  0.02665149
                   Y -0.01401290  0.02383227  0.01973162 -0.02598433 -0.02058920
                   Z  0.00803549 -0.01977374 -0.01400250  0.02095012  0.00901356
 22   C            X -0.00444200  0.03083177  0.03267992 -0.02767182 -0.02665149
                   Y  0.01401290 -0.02383227 -0.01973162  0.02598433  0.02058920
                   Z -0.00803549  0.01977374  0.01400250 -0.02095012 -0.00901356
 23   C            X -0.00075846  0.00115018  0.00268046 -0.00382849 -0.01058569
                   Y -0.00257445 -0.00099818 -0.00874047 -0.00711020  0.00039588
                   Z -0.01463223 -0.00220079 -0.07982061 -0.00834762  0.00462330
 24   C            X  0.00075846 -0.00115018 -0.00268046  0.00382849  0.01058569
                   Y  0.00257445  0.00099818  0.00874047  0.00711020 -0.00039588
                   Z  0.01463223  0.00220079  0.07982061  0.00834762 -0.00462330
 25   C            X -0.00075846  0.00115018  0.00268046  0.00382849  0.01058569
                   Y -0.00257445 -0.00099818 -0.00874047  0.00711020 -0.00039588
                   Z  0.01463223  0.00220079  0.07982061 -0.00834762  0.00462330
 26   C            X  0.00075846 -0.00115018 -0.00268046 -0.00382849 -0.01058569
                   Y  0.00257445  0.00099818  0.00874047 -0.00711020  0.00039588
                   Z -0.01463223 -0.00220079 -0.07982061  0.00834762 -0.00462330
 27   C            X -0.01519705 -0.00912845  0.02482857 -0.02975153  0.05914044
                   Y  0.00077318 -0.00596801 -0.00101634 -0.00411641  0.00054059
                   Z -0.00554051 -0.01261052  0.02006058 -0.01567443  0.02520119
 28   C            X  0.01519705  0.00912845 -0.02482857  0.02975153 -0.05914044
                   Y -0.00077318  0.00596801  0.00101634  0.00411641 -0.00054059
                   Z  0.00554051  0.01261052 -0.02006058  0.01567443 -0.02520119
 29   C            X -0.01519705 -0.00912845  0.02482857  0.02975153 -0.05914044
                   Y  0.00077318 -0.00596801 -0.00101634  0.00411641 -0.00054059
                   Z  0.00554051  0.01261052 -0.02006058 -0.01567443  0.02520119
 30   C            X  0.01519705  0.00912845 -0.02482857 -0.02975153  0.05914044
                   Y -0.00077318  0.00596801  0.00101634 -0.00411641  0.00054059
                   Z -0.00554051 -0.01261052  0.02006058  0.01567443 -0.02520119
 31   C            X -0.03235389 -0.00878429  0.01008351  0.02743983  0.00282798
                   Y  0.03058140  0.01127867 -0.00641290 -0.01090837  0.00189067
                   Z -0.04806708 -0.00641577  0.01064076  0.03617316 -0.00204979
 32   C            X  0.03235389  0.00878429 -0.01008351 -0.02743983 -0.00282798
                   Y -0.03058140 -0.01127867  0.00641290  0.01090837 -0.00189067
                   Z  0.04806708  0.00641577 -0.01064076 -0.03617316  0.00204979
 33   C            X -0.03235389 -0.00878429  0.01008351 -0.02743983 -0.00282798
                   Y  0.03058140  0.01127867 -0.00641290  0.01090837 -0.00189067
                   Z  0.04806708  0.00641577 -0.01064076  0.03617316 -0.00204979
 34   C            X  0.03235389  0.00878429 -0.01008351  0.02743983  0.00282798
                   Y -0.03058140 -0.01127867  0.00641290 -0.01090837  0.00189067
                   Z -0.04806708 -0.00641577  0.01064076 -0.03617316  0.00204979
 35   C            X -0.00936670 -0.00280380 -0.01352365 -0.00669640 -0.00879641
                   Y -0.04350063  0.00967202 -0.02455969 -0.01968093 -0.05695124
                   Z  0.01322606 -0.00078126  0.00137431 -0.00066260  0.01291747
 36   C            X  0.00936670  0.00280380  0.01352365  0.00669640  0.00879641
                   Y  0.04350063 -0.00967203  0.02455969  0.01968093  0.05695124
                   Z -0.01322606  0.00078126 -0.00137431  0.00066260 -0.01291747
 37   C            X -0.00936670 -0.00280380 -0.01352365  0.00669640  0.00879641
                   Y -0.04350063  0.00967203 -0.02455969  0.01968093  0.05695124
                   Z -0.01322606  0.00078126 -0.00137431 -0.00066260  0.01291747
 38   C            X  0.00936670  0.00280380  0.01352365 -0.00669640 -0.00879641
                   Y  0.04350063 -0.00967202  0.02455969 -0.01968093 -0.05695124
                   Z  0.01322606 -0.00078126  0.00137431  0.00066260 -0.01291747
 39   C            X  0.03759475  0.06107816  0.03123386 -0.00485350 -0.00784818
                   Y  0.02047387  0.01110370  0.00705718  0.00019500 -0.00303503
                   Z  0.00494365  0.00765939  0.00264415 -0.00326976 -0.00591280
 40   C            X -0.03759475 -0.06107816 -0.03123386  0.00485350  0.00784818
                   Y -0.02047387 -0.01110370 -0.00705718 -0.00019500  0.00303503
                   Z -0.00494365 -0.00765939 -0.00264415  0.00326976  0.00591280
 41   C            X  0.03759475  0.06107816  0.03123386  0.00485350  0.00784818
                   Y  0.02047387  0.01110370  0.00705718 -0.00019500  0.00303503
                   Z -0.00494365 -0.00765939 -0.00264415 -0.00326976 -0.00591280
 42   C            X -0.03759475 -0.06107816 -0.03123386 -0.00485350 -0.00784818
                   Y -0.02047387 -0.01110370 -0.00705718  0.00019500 -0.00303503
                   Z  0.00494365  0.00765939  0.00264415  0.00326976  0.00591280
 43   C            X  0.00526399 -0.01180396  0.00246857 -0.00660584  0.01690528
                   Y  0.00993241 -0.04539916  0.00190774 -0.01265576  0.01986095
                   Z  0.01894567 -0.04598835 -0.00050849 -0.02097002  0.02954952
 44   C            X -0.00526399  0.01180396 -0.00246857  0.00660584 -0.01690528
                   Y -0.00993241  0.04539916 -0.00190774  0.01265576 -0.01986095
                   Z -0.01894567  0.04598835  0.00050849  0.02097002 -0.02954952
 45   C            X  0.00526399 -0.01180396  0.00246857  0.00660584 -0.01690528
                   Y  0.00993241 -0.04539916  0.00190774  0.01265576 -0.01986095
                   Z -0.01894567  0.04598835  0.00050849 -0.02097002  0.02954952
 46   C            X -0.00526399  0.01180396 -0.00246857 -0.00660584  0.01690528
                   Y -0.00993241  0.04539916 -0.00190774 -0.01265576  0.01986095
                   Z  0.01894567 -0.04598835 -0.00050849  0.02097002 -0.02954952
 47   C            X  0.01011078 -0.02137524 -0.03100441 -0.02286755 -0.03309320
                   Y -0.01955280  0.02092631  0.02262863  0.03030064  0.03478239
                   Z -0.00631648  0.01075614  0.00461106  0.01128589  0.00629388
 48   C            X -0.01011078  0.02137524  0.03100441  0.02286755  0.03309320
                   Y  0.01955280 -0.02092631 -0.02262863 -0.03030064 -0.03478239
                   Z  0.00631648 -0.01075614 -0.00461106 -0.01128589 -0.00629388
 49   C            X  0.01011078 -0.02137524 -0.03100441  0.02286755  0.03309320
                   Y -0.01955280  0.02092631  0.02262863 -0.03030064 -0.03478239
                   Z  0.00631648 -0.01075614 -0.00461106  0.01128589  0.00629388
 50   C            X -0.01011078  0.02137524  0.03100441 -0.02286755 -0.03309320
                   Y  0.01955280 -0.02092631 -0.02262863  0.03030064  0.03478239
                   Z -0.00631648  0.01075614  0.00461106 -0.01128589 -0.00629388
 51   C            X  0.01765926  0.01762230 -0.02040201  0.00000000  0.00000000
                   Y -0.03190781 -0.05203172  0.04546389 -0.00000000 -0.00000000
                   Z  0.00000000 -0.00000000  0.00000000 -0.01096749  0.00425417
 52   C            X -0.01765926 -0.01762230  0.02040201  0.00000000  0.00000000
                   Y  0.03190781  0.05203172 -0.04546389 -0.00000000 -0.00000000
                   Z  0.00000000 -0.00000000  0.00000000  0.01096749 -0.00425417
 53   C            X -0.00402524  0.00111431 -0.00351527  0.00325194 -0.00895871
                   Y -0.01152515  0.03568526  0.00469993  0.01382085 -0.01137650
                   Z -0.03190804  0.05079974  0.01048036  0.02669181 -0.02721411
 54   C            X  0.00402524 -0.00111431  0.00351527 -0.00325194  0.00895871
                   Y  0.01152515 -0.03568526 -0.00469993 -0.01382085  0.01137650
                   Z  0.03190804 -0.05079974 -0.01048036 -0.02669181  0.02721411
 55   C            X -0.00402524  0.00111431 -0.00351527 -0.00325194  0.00895871
                   Y -0.01152515  0.03568526  0.00469993 -0.01382085  0.01137650
                   Z  0.03190804 -0.05079974 -0.01048036  0.02669181 -0.02721411
 56   C            X  0.00402524 -0.00111431  0.00351527  0.00325194 -0.00895871
                   Y  0.01152515 -0.03568526 -0.00469993  0.01382085 -0.01137650
                   Z -0.03190804  0.05079974  0.01048036 -0.02669181  0.02721411
 57   C            X -0.01769422 -0.00250996  0.03429381 -0.01973372  0.05186680
                   Y  0.00721068 -0.00369907 -0.00987219  0.00152528 -0.01171815
                   Z -0.00855783 -0.00778123  0.02996827 -0.01592110  0.02692481
 58   C            X  0.01769422  0.00250996 -0.03429381  0.01973372 -0.05186680
                   Y -0.00721068  0.00369907  0.00987219 -0.00152528  0.01171815
                   Z  0.00855783  0.00778123 -0.02996827  0.01592110 -0.02692481
 59   C            X -0.01769422 -0.00250996  0.03429381  0.01973372 -0.05186680
                   Y  0.00721068 -0.00369907 -0.00987219 -0.00152528  0.01171815
                   Z  0.00855783  0.00778123 -0.02996827 -0.01592110  0.02692481
 60   C            X  0.01769422  0.00250996 -0.03429381 -0.01973372  0.05186680
                   Y -0.00721068  0.00369907  0.00987219  0.00152528 -0.01171815
                   Z -0.00855783 -0.00778123  0.02996827  0.01592110 -0.02692481

 TRANS. SAYVETZ    X  0.00000000  0.00000000 -0.00000000  0.00000000  0.00000000
                   Y  0.00000000 -0.00000000 -0.00000000 -0.00000000  0.00000000
                   Z  0.00000000 -0.00000000  0.00000000 -0.00000000 -0.00000000
               TOTAL  0.00000000  0.00000000  0.00000000  0.00000000  0.00000000

   ROT. SAYVETZ    X -0.00000000 -0.00000000 -0.00000000 -0.00755100 -0.00688781
                   Y  0.00000000  0.00000000  0.00000000  0.02091934  0.04112583
                   Z  0.00013508 -0.00367177 -0.00225259  0.00000000  0.00000000
               TOTAL  0.00013508  0.00367177  0.00225259  0.02224042  0.04169863

 REFERENCE ON SAYVETZ CONDITIONS - A. SAYVETZ, J.CHEM.PHYS., 7, 383-389(1939).

 NOTE - THE MODES J,K ARE ORTHONORMALIZED ACCORDING TO
 SUM ON I   M(I) * (X(I,J)*X(I,K) + Y(I,J)*Y(I,K) + Z(I,J)*Z(I,K)) = DELTA(J,K)

     -------------------------------
     THERMOCHEMISTRY AT T=  298.15 K
     -------------------------------

 USING IDEAL GAS, RIGID ROTOR, HARMONIC NORMAL MODE APPROXIMATIONS.
 P=  1.01325E+05 PASCAL.
 ALL FREQUENCIES ARE SCALED BY   1.00000
 THE MOMENTS OF INERTIA ARE (IN AMU*BOHR**2)
  21685.87297 21685.87298 21685.87298
 THE ROTATIONAL SYMMETRY NUMBER IS  2.0
 THE ROTATIONAL CONSTANTS ARE (IN GHZ)
      0.08315     0.08315     0.08315
 THE HARMONIC ZERO POINT ENERGY IS (SCALED BY   1.000)
        0.424026 HARTREE/MOLECULE    93062.949762 CM**-1/MOLECULE 
      266.080592 KCAL/MOL             1113.281199 KJ/MOL

               Q               LN Q
 ELEC.     1.00000E+00       0.000000
 TRANS.    7.59368E+08      20.447998
 ROT.      1.80749E+07      16.710037
 VIB.      5.28250E+02       6.269570
 TOT.      7.25052E+18      43.427605

              E         H         G         CV        CP        S
           KJ/MOL    KJ/MOL    KJ/MOL   J/MOL-K   J/MOL-K   J/MOL-K
 ELEC.      0.000     0.000     0.000     0.000     0.000     0.000
 TRANS.     3.718     6.197   -50.689    12.472    20.786   190.799
 ROT.       3.718     3.718   -41.423    12.472    12.472   151.406
 VIB.    1152.074  1152.074  1097.739   384.399   384.399   182.239
 TOTAL   1159.511  1161.989  1005.627   409.342   417.657   524.443
 VIB. THERMAL CORRECTION E(T)-E(0) = H(T)-H(0) = 38792.531 J/MOL

              E         H         G         CV        CP        S
         KCAL/MOL  KCAL/MOL  KCAL/MOL CAL/MOL-K CAL/MOL-K CAL/MOL-K
 ELEC.      0.000     0.000     0.000     0.000     0.000     0.000
 TRANS.     0.889     1.481   -12.115     2.981     4.968    45.602
 ROT.       0.889     0.889    -9.900     2.981     2.981    36.187
 VIB.     275.352   275.352   262.366    91.874    91.874    43.556
 TOTAL    277.130   277.722   240.351    97.835    99.822   125.345
 VIB. THERMAL CORRECTION E(T)-E(0) = H(T)-H(0) =  9271.637 CAL/MOL
 ......END OF NORMAL COORDINATE ANALYSIS......
 STEP CPU TIME =     0.20 TOTAL CPU TIME =       56.9 (    0.9 MIN)
 TOTAL WALL CLOCK TIME=       58.1 SECONDS, CPU UTILIZATION IS  98.05%
      679441  WORDS OF DYNAMIC MEMORY USED
 EXECUTION OF GAMESS TERMINATED NORMALLY Mon Oct  3 13:20:20 2011
 DDI: 263224 bytes (0.3 MB / 0 MWords) used by master data server.

 ----------------------------------------
 CPU timing information for all processes
 ========================================
 0: 54.707 + 2.248 = 56.955
 ----------------------------------------
 ddikick.x: exited gracefully.
unset echo
----- accounting info -----
Files used on the master node idhi were:
-rw-r--r-- 1 koushik koushik    3308 2011-10-03 13:19 /home/koushik/Desktop/gamess/c60nm.F05
-rw-r--r-- 1 koushik koushik       0 2011-10-03 13:19 /home/koushik/Desktop/gamess/c60nm.F08
-rw-r--r-- 1 koushik koushik 7525600 2011-10-03 13:20 /home/koushik/Desktop/gamess/c60nm.F10
Mon Oct  3 13:20:23 IST 2011
0.0u 0.0s 1:01.23 0.2% 0+0k 0+24io 0pf+0w
