
          ******************************************************
          *         GAMESS VERSION =  1 OCT 2010 (R1)          *
          *             FROM IOWA STATE UNIVERSITY             *
          * M.W.SCHMIDT, K.K.BALDRIDGE, J.A.BOATZ, S.T.ELBERT, *
          *   M.S.GORDON, J.H.JENSEN, S.KOSEKI, N.MATSUNAGA,   *
          *          K.A.NGUYEN, S.J.SU, T.L.WINDUS,           *
          *       TOGETHER WITH M.DUPUIS, J.A.MONTGOMERY       *
          *         J.COMPUT.CHEM.  14, 1347-1363(1993)        *
          **************** 32 BIT LINUX VERSION ****************

  SINCE 1993, STUDENTS AND POSTDOCS WORKING AT IOWA STATE UNIVERSITY
  AND ALSO IN THEIR VARIOUS JOBS AFTER LEAVING ISU HAVE MADE IMPORTANT
  CONTRIBUTIONS TO THE CODE:
     IVANA ADAMOVIC, CHRISTINE AIKENS, YURI ALEXEEV, POOJA ARORA,
     ANDREY ASADCHEV, ROB BELL, PRADIPTA BANDYOPADHYAY, JONATHAN BENTZ,
     BRETT BODE, GALINA CHABAN, WEI CHEN, CHEOL HO CHOI, PAUL DAY, TIM DUDLEY,
     DMITRI FEDOROV, GRAHAM FLETCHER, MARK FREITAG, KURT GLAESEMANN, DAN KEMP,
     GRANT MERRILL, NORIYUKI MINEZAWA, JONATHAN MULLIN, TAKESHI NAGATA,
     SEAN NEDD, HEATHER NETZLOFF, BOSILJKA NJEGIC, RYAN OLSON, MIKE PAK,
     JIM SHOEMAKER, LYUDMILA SLIPCHENKO, SAROM SOK, JIE SONG,
     TETSUYA TAKETSUGU, SIMON WEBB, SOOHAENG YOO, FEDERICO ZAHARIEV

  ADDITIONAL CODE HAS BEEN PROVIDED BY COLLABORATORS IN OTHER GROUPS:
     IOWA STATE UNIVERSITY:
          JOE IVANIC, LAIMUTIS BYTAUTAS, KLAUS RUEDENBERG
     UNIVERSITY OF TOKYO: KIMIHIKO HIRAO, TAKAHITO NAKAJIMA,
          TAKAO TSUNEDA, MUNEAKI KAMIYA, SUSUMU YANAGISAWA,
          KIYOSHI YAGI, MAHITO CHIBA, SEIKEN TOKURA, NAOAKI KAWAKAMI
     UNIVERSITY OF AARHUS: FRANK JENSEN
     UNIVERSITY OF IOWA: VISVALDAS KAIRYS, HUI LI
     NATIONAL INST. OF STANDARDS AND TECHNOLOGY: WALT STEVENS, DAVID GARMER
     UNIVERSITY OF PISA: BENEDETTA MENNUCCI, JACOPO TOMASI
     UNIVERSITY OF MEMPHIS: HENRY KURTZ, PRAKASHAN KORAMBATH
     UNIVERSITY OF ALBERTA: TOBY ZENG, MARIUSZ KLOBUKOWSKI
     UNIVERSITY OF NEW ENGLAND: MARK SPACKMAN
     MIE UNIVERSITY: HIROAKI UMEDA
     MICHIGAN STATE UNIVERSITY:
          KAROL KOWALSKI, MARTA WLOCH, JEFFREY GOUR, JESSE LUTZ, PIOTR PIECUCH
     UNIVERSITY OF SILESIA: MONIKA MUSIAL, STANISLAW KUCHARSKI
     FACULTES UNIVERSITAIRES NOTRE-DAME DE LA PAIX:
          OLIVIER QUINET, BENOIT CHAMPAGNE
     UNIVERSITY OF CALIFORNIA - SANTA BARBARA: BERNARD KIRTMAN
     INSTITUTE FOR MOLECULAR SCIENCE:
          KAZUYA ISHIMURA, MICHIO KATOUDA, AND SHIGERU NAGASE
     UNIVERSITY OF NOTRE DAME: DAN CHIPMAN
     KYUSHU UNIVERSITY:
          HARUYUKI NAKANO,
          FENG LONG GU, JACEK KORCHOWIEC, MARCIN MAKOWSKI, AND YURIKO AOKI,
          HIROTOSHI MORI AND EISAKU MIYOSHI
     PENNSYLVANIA STATE UNIVERSITY:
          TZVETELIN IORDANOV, CHET SWALINA, JONATHAN SKONE,
          SHARON HAMMES-SCHIFFER
     WASEDA UNIVERSITY:
          MASATO KOBAYASHI, TOMOKO AKAMA, HIROMI NAKAI
     UNIVERSITY OF NEBRASKA:
          PEIFENG SU, DEJUN SI, YALI WANG, HUI LI
     UNIVERSITY OF ZURICH:
          ROBERTO PEVERATI, KIM BALDRIDGE
     N. COPERNICUS UNIVERSITY AND JACKSON STATE UNIVERSITY:
          MARIA BARYSZ

 EXECUTION OF GAMESS BEGUN Mon Dec  5 11:53:34 2011

            ECHO OF THE FIRST FEW INPUT CARDS -
 INPUT CARD> $CONTRL RUNTYP=ENERGY COORD=ZMT UNITS=ANGS $END                                
 INPUT CARD> $BASIS  GBASIS=N31 NGAUSS=6 $END                                               
 INPUT CARD> $DATA                                                                          
 INPUT CARD>6-31g(d)/ Benzene normal modes                                                  
 INPUT CARD>Dnh 6                                                                           
 INPUT CARD>                                                                                
 INPUT CARD>C                                                                               
 INPUT CARD>C  1   1.3861734                                                                
 INPUT CARD>C  2   1.3861734  1   120.0000000                                               
 INPUT CARD>C  3   1.3861734  2   120.0000000  1     0.0000000                              
 INPUT CARD>C  4   1.3861734  3   120.0000000  2     0.0000000                              
 INPUT CARD>C  1   1.3861734  2   120.0000000  3     0.0000000                              
 INPUT CARD>H  1   1.0756030  6   120.0000000  5   180.0000000                              
 INPUT CARD>H  2   1.0756030  1   120.0000000  6   180.0000000                              
 INPUT CARD>H  3   1.0756030  2   120.0000000  1   180.0000000                              
 INPUT CARD>H  4   1.0756030  3   120.0000000  2   180.0000000                              
 INPUT CARD>H  5   1.0756030  4   120.0000000  3   180.0000000                              
 INPUT CARD>H  6   1.0756030  1   120.0000000  2   180.0000000                              
 INPUT CARD> $END                                                                           
    1000000 WORDS OF MEMORY AVAILABLE

     BASIS OPTIONS
     -------------
     GBASIS=N31          IGAUSS=       6      POLAR=NONE    
     NDFUNC=       0     NFFUNC=       0     DIFFSP=       F
     NPFUNC=       0      DIFFS=       F     BASNAM=        


     RUN TITLE
     ---------
 6-31g(d)/ Benzene normal modes                                                  

 THE POINT GROUP OF THE MOLECULE IS DNH     
 THE ORDER OF THE PRINCIPAL AXIS IS     6

 YOUR FULLY SUBSTITUTED Z-MATRIX IS
 C   
 C      1   1.3861734
 C      2   1.3861734  1  120.0000
 C      3   1.3861734  2  120.0000  1    0.0000  0
 C      4   1.3861734  3  120.0000  2    0.0000  0
 C      1   1.3861734  2  120.0000  3    0.0000  0
 H      1   1.0756030  6  120.0000  5  180.0000  0
 H      2   1.0756030  1  120.0000  6  180.0000  0
 H      3   1.0756030  2  120.0000  1  180.0000  0
 H      4   1.0756030  3  120.0000  2  180.0000  0
 H      5   1.0756030  4  120.0000  3  180.0000  0
 H      6   1.0756030  1  120.0000  2  180.0000  0

 THE MOMENTS OF INERTIA ARE (AMU-ANGSTROM**2)
 IXX=    87.496   IYY=   174.993   IZZ=    87.496

 ATOM      ATOMIC                      COORDINATES (BOHR)
           CHARGE         X                   Y                   Z
 C           6.0     0.0000000000       -2.6194878975        0.0000000000
 C           6.0     2.2685430641       -1.3097439487        0.0000000000
 C           6.0     2.2685430641        1.3097439487        0.0000000000
 C           6.0    -0.0000000000        2.6194878975        0.0000000000
 C           6.0    -2.2685430641        1.3097439487        0.0000000000
 C           6.0    -2.2685430641       -1.3097439487        0.0000000000
 H           1.0    -0.0000000000       -4.6520828390        0.0000000000
 H           1.0     4.0288219191       -2.3260414195        0.0000000000
 H           1.0     4.0288219191        2.3260414195        0.0000000000
 H           1.0     0.0000000000        4.6520828390        0.0000000000
 H           1.0    -4.0288219191        2.3260414195        0.0000000000
 H           1.0    -4.0288219191       -2.3260414195        0.0000000000

          INTERNUCLEAR DISTANCES (ANGS.)
          ------------------------------

                1 C          2 C          3 C          4 C          5 C     

   1 C       0.0000000    1.3861734 *  2.4009228 *  2.7723468 *  2.4009228 *
   2 C       1.3861734 *  0.0000000    1.3861734 *  2.4009228 *  2.7723468 *
   3 C       2.4009228 *  1.3861734 *  0.0000000    1.3861734 *  2.4009228 *
   4 C       2.7723468 *  2.4009228 *  1.3861734 *  0.0000000    1.3861734 *
   5 C       2.4009228 *  2.7723468 *  2.4009228 *  1.3861734 *  0.0000000  
   6 C       1.3861734 *  2.4009228 *  2.7723468 *  2.4009228 *  1.3861734 *
   7 H       1.0756030 *  2.1376087 *  3.3755398    3.8479498    3.3755398  
   8 H       2.1376087 *  1.0756030 *  2.1376087 *  3.3755398    3.8479498  
   9 H       3.3755398    2.1376087 *  1.0756030 *  2.1376087 *  3.3755398  
  10 H       3.8479498    3.3755398    2.1376087 *  1.0756030 *  2.1376087 *
  11 H       3.3755398    3.8479498    3.3755398    2.1376087 *  1.0756030 *
  12 H       2.1376087 *  3.3755398    3.8479498    3.3755398    2.1376087 *

                6 C          7 H          8 H          9 H         10 H     

   1 C       1.3861734 *  1.0756030 *  2.1376087 *  3.3755398    3.8479498  
   2 C       2.4009228 *  2.1376087 *  1.0756030 *  2.1376087 *  3.3755398  
   3 C       2.7723468 *  3.3755398    2.1376087 *  1.0756030 *  2.1376087 *
   4 C       2.4009228 *  3.8479498    3.3755398    2.1376087 *  1.0756030 *
   5 C       1.3861734 *  3.3755398    3.8479498    3.3755398    2.1376087 *
   6 C       0.0000000    2.1376087 *  3.3755398    3.8479498    3.3755398  
   7 H       2.1376087 *  0.0000000    2.4617764 *  4.2639218    4.9235528  
   8 H       3.3755398    2.4617764 *  0.0000000    2.4617764 *  4.2639218  
   9 H       3.8479498    4.2639218    2.4617764 *  0.0000000    2.4617764 *
  10 H       3.3755398    4.9235528    4.2639218    2.4617764 *  0.0000000  
  11 H       2.1376087 *  4.2639218    4.9235528    4.2639218    2.4617764 *
  12 H       1.0756030 *  2.4617764 *  4.2639218    4.9235528    4.2639218  

               11 H         12 H     

   1 C       3.3755398    2.1376087 *
   2 C       3.8479498    3.3755398  
   3 C       3.3755398    3.8479498  
   4 C       2.1376087 *  3.3755398  
   5 C       1.0756030 *  2.1376087 *
   6 C       2.1376087 *  1.0756030 *
   7 H       4.2639218    2.4617764 *
   8 H       4.9235528    4.2639218  
   9 H       4.2639218    4.9235528  
  10 H       2.4617764 *  4.2639218  
  11 H       0.0000000    2.4617764 *
  12 H       2.4617764 *  0.0000000  

  * ... LESS THAN  3.000


     ATOMIC BASIS SET
     ----------------
 THE CONTRACTED PRIMITIVE FUNCTIONS HAVE BEEN UNNORMALIZED
 THE CONTRACTED BASIS FUNCTIONS ARE NOW NORMALIZED TO UNITY

  SHELL TYPE  PRIMITIVE        EXPONENT          CONTRACTION COEFFICIENT(S)

 C         

     16   S       1          3047.5248800    0.001834737132
     16   S       2           457.3695180    0.014037322813
     16   S       3           103.9486850    0.068842622264
     16   S       4            29.2101553    0.232184443216
     16   S       5             9.2866630    0.467941348435
     16   S       6             3.1639270    0.362311985337

     17   L       7             7.8682723   -0.119332419775    0.068999066591
     17   L       8             1.8812885   -0.160854151696    0.316423960957
     17   L       9             0.5442493    1.143456437840    0.744308290898

     18   L      10             0.1687145    1.000000000000    1.000000000000

 H         

     29   S      11            18.7311370    0.033494604338
     29   S      12             2.8253944    0.234726953484
     29   S      13             0.6401217    0.813757326146

     30   S      14             0.1612778    1.000000000000

 TOTAL NUMBER OF BASIS SET SHELLS             =   30
 NUMBER OF CARTESIAN GAUSSIAN BASIS FUNCTIONS =   66
 NUMBER OF ELECTRONS                          =   42
 CHARGE OF MOLECULE                           =    0
 SPIN MULTIPLICITY                            =    1
 NUMBER OF OCCUPIED ORBITALS (ALPHA)          =   21
 NUMBER OF OCCUPIED ORBITALS (BETA )          =   21
 TOTAL NUMBER OF ATOMS                        =   12
 THE NUCLEAR REPULSION ENERGY IS      204.8115039161

     $CONTRL OPTIONS
     ---------------
 SCFTYP=RHF          RUNTYP=ENERGY       EXETYP=RUN     
 MPLEVL=       0     CITYP =NONE         CCTYP =NONE         VBTYP =NONE    
 DFTTYP=NONE         TDDFT =NONE    
 MULT  =       1     ICHARG=       0     NZVAR =       0     COORD =ZMT     
 PP    =NONE         RELWFN=NONE         LOCAL =NONE         NUMGRD=       F
 ISPHER=      -1     NOSYM =       0     MAXIT =      30     UNITS =ANGS    
 PLTORB=       F     MOLPLT=       F     AIMPAC=       F     FRIEND=        
 NPRINT=       7     IREST =       0     GEOM  =INPUT   
 NORMF =       0     NORMP =       0     ITOL  =      20     ICUT  =       9
 INTTYP=BEST         GRDTYP=BEST         QMTTOL= 1.0E-06

     $SYSTEM OPTIONS
     ---------------
  REPLICATED MEMORY=     1000000 WORDS (ON EVERY NODE).
 DISTRIBUTED MEMDDI=           0 MILLION WORDS IN AGGREGATE,
 MEMDDI DISTRIBUTED OVER   1 PROCESSORS IS           0 WORDS/PROCESSOR.
 TOTAL MEMORY REQUESTED ON EACH PROCESSOR=     1000000 WORDS.
 TIMLIM=      525600.00 MINUTES, OR     365.0 DAYS.
 PARALL= F  BALTYP=  DLB     KDIAG=    0  COREFL= F
 MXSEQ2=     300 MXSEQ3=     150

          ----------------
          PROPERTIES INPUT
          ----------------

     MOMENTS            FIELD           POTENTIAL          DENSITY
 IEMOM =       1   IEFLD =       0   IEPOT =       0   IEDEN =       0
 WHERE =COMASS     WHERE =NUCLEI     WHERE =NUCLEI     WHERE =NUCLEI  
 OUTPUT=BOTH       OUTPUT=BOTH       OUTPUT=BOTH       OUTPUT=BOTH    
 IEMINT=       0   IEFINT=       0                     IEDINT=       0
                                                       MORB  =       0
          EXTRAPOLATION IN EFFECT
          DIIS IN EFFECT
 ORBITAL PRINTING OPTION: NPREO=     1    66     2     1

     -------------------------------
     INTEGRAL TRANSFORMATION OPTIONS
     -------------------------------
     NWORD  =            0
     CUTOFF = 1.0E-09     MPTRAN =       0
     DIRTRF =       F     AOINTS =DUP     

          ----------------------
          INTEGRAL INPUT OPTIONS
          ----------------------
 NOPK  =       1 NORDER=       0 SCHWRZ=       T

   --- ENCODED Z MATRIX ---
 COORD  TYPE   I   J   K   L   M   N
    1      1    5   6
    2      1    4   5
    3      2    4   5   6
    4      1    3   4
    5      2    3   4   5
    6      3    3   4   5   6
    7      1    2   3
    8      2    2   3   4
    9      3    2   3   4   5
   10      1    1   6
   11      2    1   6   5
   12      3    1   6   5   4
   13      1   12   6
   14      2   12   6   1
   15      3   12   6   1   2
   16      1   11   5
   17      2   11   5   6
   18      3   11   5   6   1
   19      1   10   4
   20      2   10   4   5
   21      3   10   4   5   6
   22      1    9   3
   23      2    9   3   4
   24      3    9   3   4   5
   25      1    8   2
   26      2    8   2   3
   27      3    8   2   3   4
   28      1    7   1
   29      2    7   1   6
   30      3    7   1   6   5

 THE DETERMINANT OF THE G MATRIX IS 10**(   -21)

     ------------------------------------------
     THE POINT GROUP IS DNH, NAXIS= 6, ORDER=24
     ------------------------------------------

     DIMENSIONS OF THE SYMMETRY SUBSPACES ARE
 A1G =    7     A1U =    0     B1U =    2     B1G =    2     A2G =    2
 A2U =    2     B2U =    7     B2G =    0     E1G =    2     E1U =    9
 E2U =    2     E2G =    9

 ..... DONE SETTING UP THE RUN .....
 STEP CPU TIME =     0.00 TOTAL CPU TIME =        0.0 (    0.0 MIN)
 TOTAL WALL CLOCK TIME=        0.0 SECONDS, CPU UTILIZATION IS   0.00%

          ********************
          1 ELECTRON INTEGRALS
          ********************
 ...... END OF ONE-ELECTRON INTEGRALS ......
 STEP CPU TIME =     0.00 TOTAL CPU TIME =        0.0 (    0.0 MIN)
 TOTAL WALL CLOCK TIME=        0.0 SECONDS, CPU UTILIZATION IS   0.00%

          -------------
          GUESS OPTIONS
          -------------
          GUESS =HUCKEL            NORB  =       0          NORDER=       0
          MIX   =       F          PRTMO =       F          PUNMO =       F
          TOLZ  = 1.0E-08          TOLE  = 1.0E-05
          SYMDEN=       F          PURIFY=       F

 INITIAL GUESS ORBITALS GENERATED BY HUCKEL   ROUTINE.
 HUCKEL GUESS REQUIRES     45504 WORDS.

 SYMMETRIES FOR INITIAL GUESS ORBITALS FOLLOW.   BOTH SET(S).
    21 ORBITALS ARE OCCUPIED (    6 CORE ORBITALS).
     7=?A1G     8=?E1U     9=?E1U    10=?E2G    11=?E2G    12=?A1G    13=A2U 
    14=?B2U    15=?B1U    16=?E1U    17=?E1U    18=E1G     19=E1G     20=?E2G
    21=?E2G    22=E2U     23=E2U     24=B1G     25=E1U     26=E1U     27=A1G 
    28=A1G     29=A1G     30=A1G     31=B1U 
 ...... END OF INITIAL ORBITAL SELECTION ......
 STEP CPU TIME =     0.02 TOTAL CPU TIME =        0.0 (    0.0 MIN)
 TOTAL WALL CLOCK TIME=        0.0 SECONDS, CPU UTILIZATION IS  66.67%

                    ----------------------
                    AO INTEGRAL TECHNOLOGY
                    ----------------------
     S,P,L SHELL ROTATED AXIS INTEGRALS, REPROGRAMMED BY
        KAZUYA ISHIMURA (IMS) AND JOSE SIERRA (SYNSTAR).
     S,P,D,L SHELL ROTATED AXIS INTEGRALS PROGRAMMED BY
        KAZUYA ISHIMURA (INSTITUTE FOR MOLECULAR SCIENCE).
     S,P,D,F,G SHELL TO TOTAL QUARTET ANGULAR MOMENTUM SUM 5,
        ERIC PROGRAM BY GRAHAM FLETCHER (ELORET AND NASA ADVANCED
        SUPERCOMPUTING DIVISION, AMES RESEARCH CENTER).
     S,P,D,F,G,L SHELL GENERAL RYS QUADRATURE PROGRAMMED BY
        MICHEL DUPUIS (PACIFIC NORTHWEST NATIONAL LABORATORY).

          --------------------
          2 ELECTRON INTEGRALS
          --------------------

 THE -PK- OPTION IS OFF, THE INTEGRALS ARE NOT IN SUPERMATRIX FORM.
 STORING   15000 INTEGRALS/RECORD ON DISK, USING 12 BYTES/INTEGRAL.
 TWO ELECTRON INTEGRAL EVALUATION REQUIRES   89821 WORDS OF MEMORY.
 SCHWARZ INEQUALITY OVERHEAD:      2208 INTEGRALS, T=        0.00
 II,JST,KST,LST =  1  1  1  1 NREC =         1 INTLOC =    1
 II,JST,KST,LST =  2  1  1  1 NREC =         1 INTLOC =    1
 II,JST,KST,LST =  3  1  1  1 NREC =         1 INTLOC =    1
 II,JST,KST,LST =  4  1  1  1 NREC =         1 INTLOC =    1
 II,JST,KST,LST =  5  1  1  1 NREC =         1 INTLOC =    1
 II,JST,KST,LST =  6  1  1  1 NREC =         1 INTLOC =    1
 II,JST,KST,LST =  7  1  1  1 NREC =         1 INTLOC =    1
 II,JST,KST,LST =  8  1  1  1 NREC =         1 INTLOC =    1
 II,JST,KST,LST =  9  1  1  1 NREC =         1 INTLOC =    1
 II,JST,KST,LST = 10  1  1  1 NREC =         1 INTLOC =    1
 II,JST,KST,LST = 11  1  1  1 NREC =         1 INTLOC =    1
 II,JST,KST,LST = 12  1  1  1 NREC =         1 INTLOC =    1
 II,JST,KST,LST = 13  1  1  1 NREC =         1 INTLOC =    1
 II,JST,KST,LST = 14  1  1  1 NREC =         1 INTLOC =    1
 II,JST,KST,LST = 15  1  1  1 NREC =         1 INTLOC =    1
 II,JST,KST,LST = 16  1  1  1 NREC =         1 INTLOC =    1
 II,JST,KST,LST = 17  1  1  1 NREC =         1 INTLOC =    8
 II,JST,KST,LST = 18  1  1  1 NREC =         1 INTLOC = 5910
 II,JST,KST,LST = 19  1  1  1 NREC =         4 INTLOC = 9955
 II,JST,KST,LST = 20  1  1  1 NREC =         4 INTLOC = 9955
 II,JST,KST,LST = 21  1  1  1 NREC =         4 INTLOC = 9955
 II,JST,KST,LST = 22  1  1  1 NREC =         4 INTLOC = 9955
 II,JST,KST,LST = 23  1  1  1 NREC =         4 INTLOC = 9955
 II,JST,KST,LST = 24  1  1  1 NREC =         4 INTLOC = 9955
 II,JST,KST,LST = 25  1  1  1 NREC =         4 INTLOC = 9955
 II,JST,KST,LST = 26  1  1  1 NREC =         4 INTLOC = 9955
 II,JST,KST,LST = 27  1  1  1 NREC =         4 INTLOC = 9955
 II,JST,KST,LST = 28  1  1  1 NREC =         4 INTLOC = 9955
 II,JST,KST,LST = 29  1  1  1 NREC =         4 INTLOC = 9955
 II,JST,KST,LST = 30  1  1  1 NREC =         6 INTLOC = 6553
 SCHWARZ INEQUALITY TEST SKIPPED        1462 INTEGRAL BLOCKS.
 TOTAL NUMBER OF NONZERO TWO-ELECTRON INTEGRALS =              122708
          9 INTEGRAL RECORDS WERE STORED ON DISK FILE  8.
  ...... END OF TWO-ELECTRON INTEGRALS .....
 STEP CPU TIME =     0.06 TOTAL CPU TIME =        0.1 (    0.0 MIN)
 TOTAL WALL CLOCK TIME=        0.1 SECONDS, CPU UTILIZATION IS  88.89%

          --------------------------
                 RHF SCF CALCULATION
          --------------------------

     NUCLEAR ENERGY =       204.8115039161
     MAXIT =   30     NPUNCH=    2
     EXTRAP=T  DAMP=F  SHIFT=F  RSTRCT=F  DIIS=T  DEM=F  SOSCF=F
     DENSITY MATRIX CONV=  1.00E-05
     MEMORY REQUIRED FOR RHF ITERS=     62081 WORDS.

 ITER EX DEM     TOTAL ENERGY        E CHANGE  DENSITY CHANGE    DIIS ERROR
   1  0  0     -230.2194511461  -230.2194511461   0.203099989   0.587827775
          * * *   INITIATING DIIS PROCEDURE   * * *
   2  1  0     -230.6026323695    -0.3831812234   0.050704502   0.106976774
   3  2  0     -230.6224271324    -0.0197947629   0.011577339   0.026593640
   4  3  0     -230.6242423062    -0.0018151738   0.005126470   0.009382176
   5  4  0     -230.6244228044    -0.0001804982   0.000284390   0.000607531
   6  5  0     -230.6244240627    -0.0000012583   0.000053127   0.000059079
   7  6  0     -230.6244240721    -0.0000000093   0.000003735   0.000003141
   8  7  0     -230.6244240721    -0.0000000001   0.000000404   0.000000307

          -----------------
          DENSITY CONVERGED
          -----------------
     TIME TO FORM FOCK OPERATORS=       0.0 SECONDS (       0.0 SEC/ITER)
     TIME TO SOLVE SCF EQUATIONS=       0.0 SECONDS (       0.0 SEC/ITER)

 FINAL RHF ENERGY IS     -230.6244240721 AFTER   8 ITERATIONS

          ------------
          EIGENVECTORS
          ------------

                      1          2          3          4          5
                  -11.2348   -11.2342   -11.2342   -11.2330   -11.2330
                     A1G        E1U        E1U        E2G        E2G 
    1  C  1  S    0.406501  -0.000000   0.575020   0.575262   0.000000
    2  C  1  S    0.009436  -0.000000   0.014157   0.015098   0.000000
    3  C  1  X   -0.000000   0.000284  -0.000000  -0.000000   0.000045
    4  C  1  Y   -0.000050  -0.000000   0.000206   0.000316   0.000000
    5  C  1  Z   -0.000000  -0.000000  -0.000000  -0.000000   0.000000
    6  C  1  S   -0.002881  -0.000000  -0.006566  -0.013932   0.000000
    7  C  1  X   -0.000000  -0.001806  -0.000000  -0.000000  -0.001920
    8  C  1  Y    0.000467  -0.000000  -0.000604  -0.003388   0.000000
    9  C  1  Z   -0.000000  -0.000000  -0.000000  -0.000000   0.000000
   10  C  2  S    0.406501  -0.497982   0.287510  -0.287631  -0.498192
   11  C  2  S    0.009436  -0.012260   0.007078  -0.007549  -0.013075
   12  C  2  X    0.000044   0.000225   0.000034   0.000156   0.000226
   13  C  2  Y   -0.000025   0.000034   0.000264  -0.000046  -0.000156
   14  C  2  Z   -0.000000  -0.000000  -0.000000  -0.000000   0.000000
   15  C  2  S   -0.002881   0.005686  -0.003283   0.006966   0.012065
   16  C  2  X   -0.000405  -0.000904  -0.000521  -0.002299  -0.002061
   17  C  2  Y    0.000234  -0.000521  -0.001505  -0.000593   0.002299
   18  C  2  Z   -0.000000  -0.000000  -0.000000  -0.000000   0.000000
   19  C  3  S    0.406501  -0.497982  -0.287510  -0.287631   0.498192
   20  C  3  S    0.009436  -0.012260  -0.007078  -0.007549   0.013075
   21  C  3  X    0.000044   0.000225  -0.000034   0.000156  -0.000226
   22  C  3  Y    0.000025  -0.000034   0.000264   0.000046  -0.000156
   23  C  3  Z   -0.000000  -0.000000  -0.000000  -0.000000   0.000000
   24  C  3  S   -0.002881   0.005686   0.003283   0.006966  -0.012065
   25  C  3  X   -0.000405  -0.000904   0.000521  -0.002299   0.002061
   26  C  3  Y   -0.000234   0.000521  -0.001505   0.000593   0.002299
   27  C  3  Z   -0.000000  -0.000000  -0.000000  -0.000000   0.000000
   28  C  4  S    0.406501  -0.000000  -0.575020   0.575262   0.000000
   29  C  4  S    0.009436  -0.000000  -0.014157   0.015098   0.000000
   30  C  4  X   -0.000000   0.000284  -0.000000  -0.000000  -0.000045
   31  C  4  Y    0.000050  -0.000000   0.000206  -0.000316   0.000000
   32  C  4  Z   -0.000000  -0.000000  -0.000000  -0.000000   0.000000
   33  C  4  S   -0.002881  -0.000000   0.006566  -0.013932   0.000000
   34  C  4  X   -0.000000  -0.001806  -0.000000  -0.000000   0.001920
   35  C  4  Y   -0.000467  -0.000000  -0.000604   0.003388   0.000000
   36  C  4  Z   -0.000000  -0.000000  -0.000000  -0.000000   0.000000
   37  C  5  S    0.406501   0.497982  -0.287510  -0.287631  -0.498192
   38  C  5  S    0.009436   0.012260  -0.007078  -0.007549  -0.013075
   39  C  5  X   -0.000044   0.000225   0.000034  -0.000156  -0.000226
   40  C  5  Y    0.000025   0.000034   0.000264   0.000046   0.000156
   41  C  5  Z   -0.000000  -0.000000  -0.000000  -0.000000   0.000000
   42  C  5  S   -0.002881  -0.005686   0.003283   0.006966   0.012065
   43  C  5  X    0.000405  -0.000904  -0.000521   0.002299   0.002061
   44  C  5  Y   -0.000234  -0.000521  -0.001505   0.000593  -0.002299
   45  C  5  Z   -0.000000  -0.000000  -0.000000  -0.000000   0.000000
   46  C  6  S    0.406501   0.497982   0.287510  -0.287631   0.498192
   47  C  6  S    0.009436   0.012260   0.007078  -0.007549   0.013075
   48  C  6  X   -0.000044   0.000225  -0.000034  -0.000156   0.000226
   49  C  6  Y   -0.000025  -0.000034   0.000264  -0.000046   0.000156
   50  C  6  Z   -0.000000  -0.000000  -0.000000  -0.000000   0.000000
   51  C  6  S   -0.002881  -0.005686  -0.003283   0.006966  -0.012065
   52  C  6  X    0.000405  -0.000904   0.000521   0.002299  -0.002061
   53  C  6  Y    0.000234   0.000521  -0.001505  -0.000593  -0.002299
   54  C  6  Z   -0.000000  -0.000000  -0.000000  -0.000000   0.000000
   55  H  7  S   -0.000154  -0.000000  -0.000247  -0.000161   0.000000
   56  H  7  S    0.001173  -0.000000   0.001054   0.000630   0.000000
   57  H  8  S   -0.000154   0.000214  -0.000123   0.000080   0.000139
   58  H  8  S    0.001173  -0.000913   0.000527  -0.000315  -0.000546
   59  H  9  S   -0.000154   0.000214   0.000123   0.000080  -0.000139
   60  H  9  S    0.001173  -0.000913  -0.000527  -0.000315   0.000546
   61  H 10  S   -0.000154  -0.000000   0.000247  -0.000161   0.000000
   62  H 10  S    0.001173  -0.000000  -0.001054   0.000630   0.000000
   63  H 11  S   -0.000154  -0.000214   0.000123   0.000080   0.000139
   64  H 11  S    0.001173   0.000913  -0.000527  -0.000315  -0.000546
   65  H 12  S   -0.000154  -0.000214  -0.000123   0.000080  -0.000139
   66  H 12  S    0.001173   0.000913   0.000527  -0.000315   0.000546

                      6          7          8          9         10
                  -11.2324    -1.1569    -1.0174    -1.0174    -0.8237
                     B2U        A1G        E1U        E1U        E2G 
    1  C  1  S    0.406923  -0.092928  -0.000000  -0.129385  -0.100898
    2  C  1  S    0.011544   0.182500  -0.000000   0.259883   0.206278
    3  C  1  X    0.000000   0.000000  -0.116215  -0.000000   0.000000
    4  C  1  Y    0.000279   0.063469  -0.000000   0.033236  -0.061059
    5  C  1  Z    0.000000   0.000000  -0.000000  -0.000000   0.000000
    6  C  1  S   -0.022548   0.107510  -0.000000   0.193433   0.179910
    7  C  1  X    0.000000   0.000000  -0.009228  -0.000000   0.000000
    8  C  1  Y   -0.009384   0.007849  -0.000000  -0.003385  -0.046707
    9  C  1  Z    0.000000   0.000000  -0.000000  -0.000000   0.000000
   10  C  2  S   -0.406923  -0.092928   0.112051  -0.064693   0.050449
   11  C  2  S   -0.011544   0.182500  -0.225065   0.129941  -0.103139
   12  C  2  X    0.000241  -0.054966  -0.004127  -0.064714  -0.117575
   13  C  2  Y   -0.000139   0.031735  -0.064714  -0.078852  -0.142587
   14  C  2  Z    0.000000   0.000000  -0.000000  -0.000000   0.000000
   15  C  2  S    0.022548   0.107510  -0.167518   0.096717  -0.089955
   16  C  2  X   -0.008127  -0.006797  -0.004846  -0.002530  -0.039682
   17  C  2  Y    0.004692   0.003924  -0.002530  -0.007767  -0.022024
   18  C  2  Z    0.000000   0.000000  -0.000000  -0.000000   0.000000
   19  C  3  S    0.406923  -0.092928   0.112051   0.064693   0.050449
   20  C  3  S    0.011544   0.182500  -0.225065  -0.129941  -0.103139
   21  C  3  X   -0.000241  -0.054966  -0.004127   0.064714  -0.117575
   22  C  3  Y   -0.000139  -0.031735   0.064714  -0.078852   0.142587
   23  C  3  Z    0.000000   0.000000  -0.000000  -0.000000   0.000000
   24  C  3  S   -0.022548   0.107510  -0.167518  -0.096717  -0.089955
   25  C  3  X    0.008127  -0.006797  -0.004846   0.002530  -0.039682
   26  C  3  Y    0.004692  -0.003924   0.002530  -0.007767   0.022024
   27  C  3  Z    0.000000   0.000000  -0.000000  -0.000000   0.000000
   28  C  4  S   -0.406923  -0.092928  -0.000000   0.129385  -0.100898
   29  C  4  S   -0.011544   0.182500  -0.000000  -0.259883   0.206278
   30  C  4  X    0.000000   0.000000  -0.116215  -0.000000   0.000000
   31  C  4  Y    0.000279  -0.063469  -0.000000   0.033236   0.061059
   32  C  4  Z    0.000000   0.000000  -0.000000  -0.000000   0.000000
   33  C  4  S    0.022548   0.107510  -0.000000  -0.193433   0.179910
   34  C  4  X    0.000000   0.000000  -0.009228  -0.000000   0.000000
   35  C  4  Y   -0.009384  -0.007849  -0.000000  -0.003385   0.046707
   36  C  4  Z    0.000000   0.000000  -0.000000  -0.000000   0.000000
   37  C  5  S    0.406923  -0.092928  -0.112051   0.064693   0.050449
   38  C  5  S    0.011544   0.182500   0.225065  -0.129941  -0.103139
   39  C  5  X    0.000241   0.054966  -0.004127  -0.064714   0.117575
   40  C  5  Y   -0.000139  -0.031735  -0.064714  -0.078852   0.142587
   41  C  5  Z    0.000000   0.000000  -0.000000  -0.000000   0.000000
   42  C  5  S   -0.022548   0.107510   0.167518  -0.096717  -0.089955
   43  C  5  X   -0.008127   0.006797  -0.004846  -0.002530   0.039682
   44  C  5  Y    0.004692  -0.003924  -0.002530  -0.007767   0.022024
   45  C  5  Z    0.000000   0.000000  -0.000000  -0.000000   0.000000
   46  C  6  S   -0.406923  -0.092928  -0.112051  -0.064693   0.050449
   47  C  6  S   -0.011544   0.182500   0.225065   0.129941  -0.103139
   48  C  6  X   -0.000241   0.054966  -0.004127   0.064714   0.117575
   49  C  6  Y   -0.000139   0.031735   0.064714  -0.078852  -0.142587
   50  C  6  Z    0.000000   0.000000  -0.000000  -0.000000   0.000000
   51  C  6  S    0.022548   0.107510   0.167518   0.096717  -0.089955
   52  C  6  X    0.008127   0.006797  -0.004846   0.002530   0.039682
   53  C  6  Y    0.004692   0.003924   0.002530  -0.007767  -0.022024
   54  C  6  Z    0.000000   0.000000  -0.000000  -0.000000   0.000000
   55  H  7  S   -0.000231   0.035888  -0.000000   0.077695   0.115366
   56  H  7  S   -0.000994   0.004626  -0.000000   0.015456   0.038118
   57  H  8  S    0.000231   0.035888  -0.067286   0.038848  -0.057683
   58  H  8  S    0.000994   0.004626  -0.013386   0.007728  -0.019059
   59  H  9  S   -0.000231   0.035888  -0.067286  -0.038848  -0.057683
   60  H  9  S   -0.000994   0.004626  -0.013386  -0.007728  -0.019059
   61  H 10  S    0.000231   0.035888  -0.000000  -0.077695   0.115366
   62  H 10  S    0.000994   0.004626  -0.000000  -0.015456   0.038118
   63  H 11  S   -0.000231   0.035888   0.067286  -0.038848  -0.057683
   64  H 11  S   -0.000994   0.004626   0.013386  -0.007728  -0.019059
   65  H 12  S    0.000231   0.035888   0.067286   0.038848  -0.057683
   66  H 12  S    0.000994   0.004626   0.013386   0.007728  -0.019059

                     11         12         13         14         15
                   -0.8237    -0.7135    -0.6384    -0.6195    -0.5879
                     E2G        A1G        B2U        B1U        E1U 
    1  C  1  S    0.000000   0.009356   0.056362  -0.000000  -0.000000
    2  C  1  S    0.000000  -0.018796  -0.122473  -0.000000  -0.000000
    3  C  1  X    0.210469   0.000000   0.000000   0.276058  -0.083467
    4  C  1  Y    0.000000   0.194309   0.131268  -0.000000  -0.000000
    5  C  1  Z    0.000000   0.000000   0.000000  -0.000000  -0.000000
    6  C  1  S    0.000000  -0.037615  -0.021194  -0.000000  -0.000000
    7  C  1  X    0.044935   0.000000   0.000000   0.091762  -0.013089
    8  C  1  Y    0.000000   0.071412   0.159709  -0.000000  -0.000000
    9  C  1  Z    0.000000   0.000000   0.000000  -0.000000  -0.000000
   10  C  2  S   -0.087380   0.009356  -0.056362  -0.000000   0.016840
   11  C  2  S    0.178642  -0.018796   0.122473  -0.000000  -0.040316
   12  C  2  X   -0.006823  -0.168277   0.113681  -0.138029   0.204712
   13  C  2  Y   -0.117575   0.097155  -0.065634  -0.239073  -0.166380
   14  C  2  Z    0.000000   0.000000   0.000000  -0.000000  -0.000000
   15  C  2  S    0.155807  -0.037615   0.021194  -0.000000  -0.035421
   16  C  2  X    0.023797  -0.061844   0.138312  -0.045881   0.091206
   17  C  2  Y   -0.039682   0.035706  -0.079854  -0.079468  -0.060215
   18  C  2  Z    0.000000   0.000000   0.000000  -0.000000  -0.000000
   19  C  3  S    0.087380   0.009356   0.056362  -0.000000   0.016840
   20  C  3  S   -0.178642  -0.018796  -0.122473  -0.000000  -0.040316
   21  C  3  X    0.006823  -0.168277  -0.113681  -0.138029   0.204712
   22  C  3  Y   -0.117575  -0.097155  -0.065634   0.239073   0.166380
   23  C  3  Z    0.000000   0.000000   0.000000  -0.000000  -0.000000
   24  C  3  S   -0.155807  -0.037615  -0.021194  -0.000000  -0.035421
   25  C  3  X   -0.023797  -0.061844  -0.138312  -0.045881   0.091206
   26  C  3  Y   -0.039682  -0.035706  -0.079854   0.079468   0.060215
   27  C  3  Z    0.000000   0.000000   0.000000  -0.000000  -0.000000
   28  C  4  S    0.000000   0.009356  -0.056362  -0.000000  -0.000000
   29  C  4  S    0.000000  -0.018796   0.122473  -0.000000  -0.000000
   30  C  4  X   -0.210469   0.000000   0.000000   0.276058  -0.083467
   31  C  4  Y    0.000000  -0.194309   0.131268  -0.000000  -0.000000
   32  C  4  Z    0.000000   0.000000   0.000000  -0.000000  -0.000000
   33  C  4  S    0.000000  -0.037615   0.021194  -0.000000  -0.000000
   34  C  4  X   -0.044935   0.000000   0.000000   0.091762  -0.013089
   35  C  4  Y    0.000000  -0.071412   0.159709  -0.000000  -0.000000
   36  C  4  Z    0.000000   0.000000   0.000000  -0.000000  -0.000000
   37  C  5  S   -0.087380   0.009356   0.056362  -0.000000  -0.016840
   38  C  5  S    0.178642  -0.018796  -0.122473  -0.000000   0.040316
   39  C  5  X    0.006823   0.168277   0.113681  -0.138029   0.204712
   40  C  5  Y    0.117575  -0.097155  -0.065634  -0.239073  -0.166380
   41  C  5  Z    0.000000   0.000000   0.000000  -0.000000  -0.000000
   42  C  5  S    0.155807  -0.037615  -0.021194  -0.000000   0.035421
   43  C  5  X   -0.023797   0.061844   0.138312  -0.045881   0.091206
   44  C  5  Y    0.039682  -0.035706  -0.079854  -0.079468  -0.060215
   45  C  5  Z    0.000000   0.000000   0.000000  -0.000000  -0.000000
   46  C  6  S    0.087380   0.009356  -0.056362  -0.000000  -0.016840
   47  C  6  S   -0.178642  -0.018796   0.122473  -0.000000   0.040316
   48  C  6  X   -0.006823   0.168277  -0.113681  -0.138029   0.204712
   49  C  6  Y    0.117575   0.097155  -0.065634   0.239073   0.166380
   50  C  6  Z    0.000000   0.000000   0.000000  -0.000000  -0.000000
   51  C  6  S   -0.155807  -0.037615   0.021194  -0.000000   0.035421
   52  C  6  X    0.023797   0.061844  -0.138312  -0.045881   0.091206
   53  C  6  Y    0.039682   0.035706  -0.079854   0.079468   0.060215
   54  C  6  Z    0.000000   0.000000   0.000000  -0.000000  -0.000000
   55  H  7  S    0.000000  -0.111327  -0.141492  -0.000000  -0.000000
   56  H  7  S    0.000000  -0.062154  -0.054131  -0.000000  -0.000000
   57  H  8  S    0.099910  -0.111327   0.141492  -0.000000   0.146039
   58  H  8  S    0.033011  -0.062154   0.054131  -0.000000   0.108687
   59  H  9  S   -0.099910  -0.111327  -0.141492  -0.000000   0.146039
   60  H  9  S   -0.033011  -0.062154  -0.054131  -0.000000   0.108687
   61  H 10  S    0.000000  -0.111327   0.141492  -0.000000  -0.000000
   62  H 10  S    0.000000  -0.062154   0.054131  -0.000000  -0.000000
   63  H 11  S    0.099910  -0.111327  -0.141492  -0.000000  -0.146039
   64  H 11  S    0.033011  -0.062154  -0.054131  -0.000000  -0.108687
   65  H 12  S   -0.099910  -0.111327   0.141492  -0.000000  -0.146039
   66  H 12  S   -0.033011  -0.062154   0.054131  -0.000000  -0.108687

                     16         17         18         19         20
                   -0.5879    -0.5023    -0.4878    -0.4878    -0.3345
                     E1U        A2U        E2G        E2G        E1G 
    1  C  1  S   -0.019446  -0.000000  -0.003822   0.000000  -0.000000
    2  C  1  S    0.046553  -0.000000   0.009664   0.000000  -0.000000
    3  C  1  X   -0.000000  -0.000000   0.000000   0.261837  -0.000000
    4  C  1  Y    0.300771  -0.000000   0.225856   0.000000  -0.000000
    5  C  1  Z   -0.000000   0.211502   0.000000   0.000000   0.317600
    6  C  1  S    0.040901  -0.000000   0.010647   0.000000  -0.000000
    7  C  1  X   -0.000000  -0.000000   0.000000   0.107243  -0.000000
    8  C  1  Y    0.125971  -0.000000   0.156191   0.000000  -0.000000
    9  C  1  Z   -0.000000   0.136346   0.000000   0.000000   0.270479
   10  C  2  S   -0.009723  -0.000000   0.001911  -0.003310  -0.000000
   11  C  2  S    0.023277  -0.000000  -0.004832   0.008369  -0.000000
   12  C  2  X   -0.166380  -0.000000  -0.015580  -0.234851  -0.000000
   13  C  2  Y    0.012593  -0.000000  -0.252842  -0.015580  -0.000000
   14  C  2  Z   -0.000000   0.211502   0.000000   0.000000   0.158800
   15  C  2  S    0.020450  -0.000000  -0.005324   0.009221  -0.000000
   16  C  2  X   -0.060215  -0.000000   0.021195  -0.143954  -0.000000
   17  C  2  Y    0.021676  -0.000000  -0.119480   0.021195  -0.000000
   18  C  2  Z   -0.000000   0.136346   0.000000   0.000000   0.135240
   19  C  3  S    0.009723  -0.000000   0.001911   0.003310  -0.000000
   20  C  3  S   -0.023277  -0.000000  -0.004832  -0.008369  -0.000000
   21  C  3  X    0.166380  -0.000000  -0.015580   0.234851  -0.000000
   22  C  3  Y    0.012593  -0.000000   0.252842  -0.015580  -0.000000
   23  C  3  Z   -0.000000   0.211502   0.000000   0.000000  -0.158800
   24  C  3  S   -0.020450  -0.000000  -0.005324  -0.009221  -0.000000
   25  C  3  X    0.060215  -0.000000   0.021195   0.143954  -0.000000
   26  C  3  Y    0.021676  -0.000000   0.119480   0.021195  -0.000000
   27  C  3  Z   -0.000000   0.136346   0.000000   0.000000  -0.135240
   28  C  4  S    0.019446  -0.000000  -0.003822   0.000000  -0.000000
   29  C  4  S   -0.046553  -0.000000   0.009664   0.000000  -0.000000
   30  C  4  X   -0.000000  -0.000000   0.000000  -0.261837  -0.000000
   31  C  4  Y    0.300771  -0.000000  -0.225856   0.000000  -0.000000
   32  C  4  Z   -0.000000   0.211502   0.000000   0.000000  -0.317600
   33  C  4  S   -0.040901  -0.000000   0.010647   0.000000  -0.000000
   34  C  4  X   -0.000000  -0.000000   0.000000  -0.107243  -0.000000
   35  C  4  Y    0.125971  -0.000000  -0.156191   0.000000  -0.000000
   36  C  4  Z   -0.000000   0.136346   0.000000   0.000000  -0.270479
   37  C  5  S    0.009723  -0.000000   0.001911  -0.003310  -0.000000
   38  C  5  S   -0.023277  -0.000000  -0.004832   0.008369  -0.000000
   39  C  5  X   -0.166380  -0.000000   0.015580   0.234851  -0.000000
   40  C  5  Y    0.012593  -0.000000   0.252842   0.015580  -0.000000
   41  C  5  Z   -0.000000   0.211502   0.000000   0.000000  -0.158800
   42  C  5  S   -0.020450  -0.000000  -0.005324   0.009221  -0.000000
   43  C  5  X   -0.060215  -0.000000  -0.021195   0.143954  -0.000000
   44  C  5  Y    0.021676  -0.000000   0.119480  -0.021195  -0.000000
   45  C  5  Z   -0.000000   0.136346   0.000000   0.000000  -0.135240
   46  C  6  S   -0.009723  -0.000000   0.001911   0.003310  -0.000000
   47  C  6  S    0.023277  -0.000000  -0.004832  -0.008369  -0.000000
   48  C  6  X    0.166380  -0.000000   0.015580  -0.234851  -0.000000
   49  C  6  Y    0.012593  -0.000000  -0.252842   0.015580  -0.000000
   50  C  6  Z   -0.000000   0.211502   0.000000   0.000000   0.158800
   51  C  6  S    0.020450  -0.000000  -0.005324  -0.009221  -0.000000
   52  C  6  X    0.060215  -0.000000  -0.021195  -0.143954  -0.000000
   53  C  6  Y    0.021676  -0.000000  -0.119480  -0.021195  -0.000000
   54  C  6  Z   -0.000000   0.136346   0.000000   0.000000   0.135240
   55  H  7  S   -0.168632  -0.000000  -0.170740   0.000000  -0.000000
   56  H  7  S   -0.125501  -0.000000  -0.129259   0.000000  -0.000000
   57  H  8  S   -0.084316  -0.000000   0.085370  -0.147865  -0.000000
   58  H  8  S   -0.062750  -0.000000   0.064630  -0.111942  -0.000000
   59  H  9  S    0.084316  -0.000000   0.085370   0.147865  -0.000000
   60  H  9  S    0.062750  -0.000000   0.064630   0.111942  -0.000000
   61  H 10  S    0.168632  -0.000000  -0.170740   0.000000  -0.000000
   62  H 10  S    0.125501  -0.000000  -0.129259   0.000000  -0.000000
   63  H 11  S    0.084316  -0.000000   0.085370  -0.147865  -0.000000
   64  H 11  S    0.062750  -0.000000   0.064630  -0.111942  -0.000000
   65  H 12  S   -0.084316  -0.000000   0.085370   0.147865  -0.000000
   66  H 12  S   -0.062750  -0.000000   0.064630   0.111942  -0.000000

                     21         22         23         24         25
                   -0.3345     0.1486     0.1486     0.2351     0.2916
                     E1G        E2U        E2U        A1G        E1U 
    1  C  1  S    0.000000   0.000000   0.000000   0.037452   0.000000
    2  C  1  S    0.000000   0.000000   0.000000  -0.044079   0.000000
    3  C  1  X    0.000000   0.000000   0.000000  -0.000000   0.021237
    4  C  1  Y    0.000000   0.000000   0.000000   0.106845   0.000000
    5  C  1  Z    0.000000   0.000000   0.314012  -0.000000   0.000000
    6  C  1  S    0.000000   0.000000   0.000000  -0.575354   0.000000
    7  C  1  X    0.000000   0.000000   0.000000  -0.000000  -0.278644
    8  C  1  Y    0.000000   0.000000   0.000000   0.319519   0.000000
    9  C  1  Z    0.000000   0.000000   0.592566  -0.000000   0.000000
   10  C  2  S    0.000000   0.000000   0.000000   0.037452  -0.032330
   11  C  2  S    0.000000   0.000000   0.000000  -0.044079   0.012229
   12  C  2  X    0.000000   0.000000   0.000000  -0.092531   0.157654
   13  C  2  Y    0.000000   0.000000   0.000000   0.053423  -0.078761
   14  C  2  Z   -0.275050  -0.271942  -0.157006  -0.000000   0.000000
   15  C  2  S    0.000000   0.000000   0.000000  -0.575354   0.967061
   16  C  2  X    0.000000   0.000000   0.000000  -0.276712   0.458304
   17  C  2  Y    0.000000   0.000000   0.000000   0.159759  -0.425477
   18  C  2  Z   -0.234242  -0.513178  -0.296283  -0.000000   0.000000
   19  C  3  S    0.000000   0.000000   0.000000   0.037452  -0.032330
   20  C  3  S    0.000000   0.000000   0.000000  -0.044079   0.012229
   21  C  3  X    0.000000   0.000000   0.000000  -0.092531   0.157654
   22  C  3  Y    0.000000   0.000000   0.000000  -0.053423   0.078761
   23  C  3  Z   -0.275050   0.271942  -0.157006  -0.000000   0.000000
   24  C  3  S    0.000000   0.000000   0.000000  -0.575354   0.967061
   25  C  3  X    0.000000   0.000000   0.000000  -0.276712   0.458304
   26  C  3  Y    0.000000   0.000000   0.000000  -0.159759   0.425477
   27  C  3  Z   -0.234242   0.513178  -0.296283  -0.000000   0.000000
   28  C  4  S    0.000000   0.000000   0.000000   0.037452   0.000000
   29  C  4  S    0.000000   0.000000   0.000000  -0.044079   0.000000
   30  C  4  X    0.000000   0.000000   0.000000  -0.000000   0.021237
   31  C  4  Y    0.000000   0.000000   0.000000  -0.106845   0.000000
   32  C  4  Z    0.000000   0.000000   0.314012  -0.000000   0.000000
   33  C  4  S    0.000000   0.000000   0.000000  -0.575354   0.000000
   34  C  4  X    0.000000   0.000000   0.000000  -0.000000  -0.278644
   35  C  4  Y    0.000000   0.000000   0.000000  -0.319519   0.000000
   36  C  4  Z    0.000000   0.000000   0.592566  -0.000000   0.000000
   37  C  5  S    0.000000   0.000000   0.000000   0.037452   0.032330
   38  C  5  S    0.000000   0.000000   0.000000  -0.044079  -0.012229
   39  C  5  X    0.000000   0.000000   0.000000   0.092531   0.157654
   40  C  5  Y    0.000000   0.000000   0.000000  -0.053423  -0.078761
   41  C  5  Z    0.275050  -0.271942  -0.157006  -0.000000   0.000000
   42  C  5  S    0.000000   0.000000   0.000000  -0.575354  -0.967061
   43  C  5  X    0.000000   0.000000   0.000000   0.276712   0.458304
   44  C  5  Y    0.000000   0.000000   0.000000  -0.159759  -0.425477
   45  C  5  Z    0.234242  -0.513178  -0.296283  -0.000000   0.000000
   46  C  6  S    0.000000   0.000000   0.000000   0.037452   0.032330
   47  C  6  S    0.000000   0.000000   0.000000  -0.044079  -0.012229
   48  C  6  X    0.000000   0.000000   0.000000   0.092531   0.157654
   49  C  6  Y    0.000000   0.000000   0.000000   0.053423   0.078761
   50  C  6  Z    0.275050   0.271942  -0.157006  -0.000000   0.000000
   51  C  6  S    0.000000   0.000000   0.000000  -0.575354  -0.967061
   52  C  6  X    0.000000   0.000000   0.000000   0.276712   0.458304
   53  C  6  Y    0.000000   0.000000   0.000000   0.159759   0.425477
   54  C  6  Z    0.234242   0.513178  -0.296283  -0.000000   0.000000
   55  H  7  S    0.000000   0.000000   0.000000   0.036644   0.000000
   56  H  7  S    0.000000   0.000000   0.000000   0.803777   0.000000
   57  H  8  S    0.000000   0.000000   0.000000   0.036644  -0.008428
   58  H  8  S    0.000000   0.000000   0.000000   0.803777  -1.180159
   59  H  9  S    0.000000   0.000000   0.000000   0.036644  -0.008428
   60  H  9  S    0.000000   0.000000   0.000000   0.803777  -1.180159
   61  H 10  S    0.000000   0.000000   0.000000   0.036644   0.000000
   62  H 10  S    0.000000   0.000000   0.000000   0.803777   0.000000
   63  H 11  S    0.000000   0.000000   0.000000   0.036644   0.008428
   64  H 11  S    0.000000   0.000000   0.000000   0.803777   1.180159
   65  H 12  S    0.000000   0.000000   0.000000   0.036644   0.008428
   66  H 12  S    0.000000   0.000000   0.000000   0.803777   1.180159

                     26         27         28         29         30
                    0.2916     0.3326     0.3326     0.3389     0.3665
                     E1U        E2G        E2G        B2U        B1G 
    1  C  1  S    0.037331  -0.078548  -0.000000   0.044521  -0.000000
    2  C  1  S   -0.014121   0.087709  -0.000000  -0.133226  -0.000000
    3  C  1  X    0.000000   0.000000   0.054000  -0.000000  -0.000000
    4  C  1  Y    0.203126  -0.101096  -0.000000   0.058297  -0.000000
    5  C  1  Z    0.000000   0.000000  -0.000000  -0.000000   0.239308
    6  C  1  S   -1.116666   1.583432  -0.000000   0.558077  -0.000000
    7  C  1  X    0.000000   0.000000   0.433984  -0.000000  -0.000000
    8  C  1  Y    0.703953  -0.764113  -0.000000   1.608123  -0.000000
    9  C  1  Z    0.000000   0.000000  -0.000000  -0.000000   0.697235
   10  C  2  S    0.018665   0.039274   0.068024  -0.044521  -0.000000
   11  C  2  S   -0.007060  -0.043855  -0.075958   0.133226  -0.000000
   12  C  2  X   -0.078761  -0.020393  -0.089322   0.050487  -0.000000
   13  C  2  Y    0.066709   0.065774   0.020393  -0.029149  -0.000000
   14  C  2  Z    0.000000   0.000000  -0.000000  -0.000000  -0.239308
   15  C  2  S   -0.558333  -0.791716  -1.371292  -0.558077  -0.000000
   16  C  2  X   -0.425477  -0.142950  -0.681581   1.392675  -0.000000
   17  C  2  Y   -0.032995   0.516516   0.142950  -0.804061  -0.000000
   18  C  2  Z    0.000000   0.000000  -0.000000  -0.000000  -0.697235
   19  C  3  S   -0.018665   0.039274  -0.068024   0.044521  -0.000000
   20  C  3  S    0.007060  -0.043855   0.075958  -0.133226  -0.000000
   21  C  3  X    0.078761  -0.020393   0.089322  -0.050487  -0.000000
   22  C  3  Y    0.066709  -0.065774   0.020393  -0.029149  -0.000000
   23  C  3  Z    0.000000   0.000000  -0.000000  -0.000000   0.239308
   24  C  3  S    0.558333  -0.791716   1.371292   0.558077  -0.000000
   25  C  3  X    0.425477  -0.142950   0.681581  -1.392675  -0.000000
   26  C  3  Y   -0.032995  -0.516516   0.142950  -0.804061  -0.000000
   27  C  3  Z    0.000000   0.000000  -0.000000  -0.000000   0.697235
   28  C  4  S   -0.037331  -0.078548  -0.000000  -0.044521  -0.000000
   29  C  4  S    0.014121   0.087709  -0.000000   0.133226  -0.000000
   30  C  4  X    0.000000   0.000000  -0.054000  -0.000000  -0.000000
   31  C  4  Y    0.203126   0.101096  -0.000000   0.058297  -0.000000
   32  C  4  Z    0.000000   0.000000  -0.000000  -0.000000  -0.239308
   33  C  4  S    1.116666   1.583432  -0.000000  -0.558077  -0.000000
   34  C  4  X    0.000000   0.000000  -0.433984  -0.000000  -0.000000
   35  C  4  Y    0.703953   0.764113  -0.000000   1.608123  -0.000000
   36  C  4  Z    0.000000   0.000000  -0.000000  -0.000000  -0.697235
   37  C  5  S   -0.018665   0.039274   0.068024   0.044521  -0.000000
   38  C  5  S    0.007060  -0.043855  -0.075958  -0.133226  -0.000000
   39  C  5  X   -0.078761   0.020393   0.089322   0.050487  -0.000000
   40  C  5  Y    0.066709  -0.065774  -0.020393  -0.029149  -0.000000
   41  C  5  Z    0.000000   0.000000  -0.000000  -0.000000   0.239308
   42  C  5  S    0.558333  -0.791716  -1.371292   0.558077  -0.000000
   43  C  5  X   -0.425477   0.142950   0.681581   1.392675  -0.000000
   44  C  5  Y   -0.032995  -0.516516  -0.142950  -0.804061  -0.000000
   45  C  5  Z    0.000000   0.000000  -0.000000  -0.000000   0.697235
   46  C  6  S    0.018665   0.039274  -0.068024  -0.044521  -0.000000
   47  C  6  S   -0.007060  -0.043855   0.075958   0.133226  -0.000000
   48  C  6  X    0.078761   0.020393  -0.089322  -0.050487  -0.000000
   49  C  6  Y    0.066709   0.065774  -0.020393  -0.029149  -0.000000
   50  C  6  Z    0.000000   0.000000  -0.000000  -0.000000  -0.239308
   51  C  6  S   -0.558333  -0.791716   1.371292  -0.558077  -0.000000
   52  C  6  X    0.425477   0.142950  -0.681581  -1.392675  -0.000000
   53  C  6  Y   -0.032995   0.516516  -0.142950  -0.804061  -0.000000
   54  C  6  Z    0.000000   0.000000  -0.000000  -0.000000  -0.697235
   55  H  7  S    0.009732   0.015990  -0.000000   0.021811  -0.000000
   56  H  7  S    1.362730  -1.448007  -0.000000   1.406929  -0.000000
   57  H  8  S    0.004866  -0.007995  -0.013848  -0.021811  -0.000000
   58  H  8  S    0.681365   0.724004   1.254011  -1.406929  -0.000000
   59  H  9  S   -0.004866  -0.007995   0.013848   0.021811  -0.000000
   60  H  9  S   -0.681365   0.724004  -1.254011   1.406929  -0.000000
   61  H 10  S   -0.009732   0.015990  -0.000000  -0.021811  -0.000000
   62  H 10  S   -1.362730  -1.448007  -0.000000  -1.406929  -0.000000
   63  H 11  S   -0.004866  -0.007995  -0.013848   0.021811  -0.000000
   64  H 11  S   -0.681365   0.724004   1.254011   1.406929  -0.000000
   65  H 12  S    0.004866  -0.007995   0.013848  -0.021811  -0.000000
   66  H 12  S    0.681365   0.724004  -1.254011  -1.406929  -0.000000

                     31         32         33         34         35
                    0.4740     0.4740     0.5014     0.5014     0.6780
                     E2G        E2G        E1U        E1U        B1U 
    1  C  1  S   -0.076745  -0.000000  -0.000000  -0.049373   0.000000
    2  C  1  S    0.055574  -0.000000  -0.000000   0.014929   0.000000
    3  C  1  X    0.000000  -0.014559   0.235169  -0.000000  -0.352415
    4  C  1  Y    0.197332  -0.000000  -0.000000   0.046574   0.000000
    5  C  1  Z    0.000000  -0.000000  -0.000000  -0.000000   0.000000
    6  C  1  S    2.363359  -0.000000  -0.000000   2.253768   0.000000
    7  C  1  X    0.000000   0.996855   2.332471  -0.000000   0.535305
    8  C  1  Y    1.813985  -0.000000  -0.000000   0.299374   0.000000
    9  C  1  Z    0.000000  -0.000000  -0.000000  -0.000000   0.000000
   10  C  2  S    0.038373   0.066463   0.042758  -0.024687   0.000000
   11  C  2  S   -0.027787  -0.048128  -0.012929   0.007464   0.000000
   12  C  2  X    0.079143   0.151639   0.093723   0.081664   0.176208
   13  C  2  Y   -0.060252  -0.079143   0.081664   0.188020   0.305200
   14  C  2  Z    0.000000  -0.000000  -0.000000  -0.000000   0.000000
   15  C  2  S   -1.181679  -2.046729  -1.951820   1.126884   0.000000
   16  C  2  X    1.217130   1.111275   0.807648   0.880357  -0.267652
   17  C  2  Y    0.294145  -1.217130   0.880357   1.824196  -0.463587
   18  C  2  Z    0.000000  -0.000000  -0.000000  -0.000000   0.000000
   19  C  3  S    0.038373  -0.066463   0.042758   0.024687   0.000000
   20  C  3  S   -0.027787   0.048128  -0.012929  -0.007464   0.000000
   21  C  3  X    0.079143  -0.151639   0.093723  -0.081664   0.176208
   22  C  3  Y    0.060252  -0.079143  -0.081664   0.188020  -0.305200
   23  C  3  Z    0.000000  -0.000000  -0.000000  -0.000000   0.000000
   24  C  3  S   -1.181679   2.046729  -1.951820  -1.126884   0.000000
   25  C  3  X    1.217130  -1.111275   0.807648  -0.880357  -0.267652
   26  C  3  Y   -0.294145  -1.217130  -0.880357   1.824196   0.463587
   27  C  3  Z    0.000000  -0.000000  -0.000000  -0.000000   0.000000
   28  C  4  S   -0.076745  -0.000000  -0.000000   0.049373   0.000000
   29  C  4  S    0.055574  -0.000000  -0.000000  -0.014929   0.000000
   30  C  4  X    0.000000   0.014559   0.235169  -0.000000  -0.352415
   31  C  4  Y   -0.197332  -0.000000  -0.000000   0.046574   0.000000
   32  C  4  Z    0.000000  -0.000000  -0.000000  -0.000000   0.000000
   33  C  4  S    2.363359  -0.000000  -0.000000  -2.253768   0.000000
   34  C  4  X    0.000000  -0.996855   2.332471  -0.000000   0.535305
   35  C  4  Y   -1.813985  -0.000000  -0.000000   0.299374   0.000000
   36  C  4  Z    0.000000  -0.000000  -0.000000  -0.000000   0.000000
   37  C  5  S    0.038373   0.066463  -0.042758   0.024687   0.000000
   38  C  5  S   -0.027787  -0.048128   0.012929  -0.007464   0.000000
   39  C  5  X   -0.079143  -0.151639   0.093723   0.081664   0.176208
   40  C  5  Y    0.060252   0.079143   0.081664   0.188020   0.305200
   41  C  5  Z    0.000000  -0.000000  -0.000000  -0.000000   0.000000
   42  C  5  S   -1.181679  -2.046729   1.951820  -1.126884   0.000000
   43  C  5  X   -1.217130  -1.111275   0.807648   0.880357  -0.267652
   44  C  5  Y   -0.294145   1.217130   0.880357   1.824196  -0.463587
   45  C  5  Z    0.000000  -0.000000  -0.000000  -0.000000   0.000000
   46  C  6  S    0.038373  -0.066463  -0.042758  -0.024687   0.000000
   47  C  6  S   -0.027787   0.048128   0.012929   0.007464   0.000000
   48  C  6  X   -0.079143   0.151639   0.093723  -0.081664   0.176208
   49  C  6  Y   -0.060252   0.079143  -0.081664   0.188020  -0.305200
   50  C  6  Z    0.000000  -0.000000  -0.000000  -0.000000   0.000000
   51  C  6  S   -1.181679   2.046729   1.951820   1.126884   0.000000
   52  C  6  X   -1.217130   1.111275   0.807648  -0.880357  -0.267652
   53  C  6  Y    0.294145   1.217130  -0.880357   1.824196   0.463587
   54  C  6  Z    0.000000  -0.000000  -0.000000  -0.000000   0.000000
   55  H  7  S    0.011104  -0.000000  -0.000000   0.139805   0.000000
   56  H  7  S    1.053021  -0.000000  -0.000000  -0.053428   0.000000
   57  H  8  S   -0.005552  -0.009616  -0.121075   0.069903   0.000000
   58  H  8  S   -0.526511  -0.911943   0.046270  -0.026714   0.000000
   59  H  9  S   -0.005552   0.009616  -0.121075  -0.069903   0.000000
   60  H  9  S   -0.526511   0.911943   0.046270   0.026714   0.000000
   61  H 10  S    0.011104  -0.000000  -0.000000  -0.139805   0.000000
   62  H 10  S    1.053021  -0.000000  -0.000000   0.053428   0.000000
   63  H 11  S   -0.005552  -0.009616   0.121075  -0.069903   0.000000
   64  H 11  S   -0.526511  -0.911943  -0.046270   0.026714   0.000000
   65  H 12  S   -0.005552   0.009616   0.121075   0.069903   0.000000
   66  H 12  S   -0.526511   0.911943  -0.046270  -0.026714   0.000000

                     36         37         38         39         40
                    0.7537     0.7791     0.7832     0.7857     0.8373
                     A2U        A2G        A1G        B2U        A1G 
    1  C  1  S    0.000000  -0.000000  -0.004670  -0.120073  -0.009353
    2  C  1  S    0.000000  -0.000000   0.535057   0.073872  -0.383452
    3  C  1  X    0.000000   0.219463   0.000000  -0.000000   0.000000
    4  C  1  Y    0.000000  -0.000000   0.245177   0.109620   0.106693
    5  C  1  Z    0.431876  -0.000000   0.000000  -0.000000   0.000000
    6  C  1  S    0.000000  -0.000000  -0.376083   4.778772   0.573357
    7  C  1  X    0.000000   4.124626   0.000000  -0.000000   0.000000
    8  C  1  Y    0.000000  -0.000000  -0.196252   3.539640  -0.309158
    9  C  1  Z   -0.300359  -0.000000   0.000000  -0.000000   0.000000
   10  C  2  S    0.000000  -0.000000  -0.004670   0.120073  -0.009353
   11  C  2  S    0.000000  -0.000000   0.535057  -0.073872  -0.383452
   12  C  2  X    0.000000   0.109731  -0.212330   0.094934  -0.092399
   13  C  2  Y    0.000000   0.190060   0.122589  -0.054810   0.053347
   14  C  2  Z    0.431876  -0.000000   0.000000  -0.000000   0.000000
   15  C  2  S    0.000000  -0.000000  -0.376083  -4.778772   0.573357
   16  C  2  X    0.000000   2.062313   0.169959   3.065419   0.267739
   17  C  2  Y    0.000000   3.572031  -0.098126  -1.769820  -0.154579
   18  C  2  Z   -0.300359  -0.000000   0.000000  -0.000000   0.000000
   19  C  3  S    0.000000  -0.000000  -0.004670  -0.120073  -0.009353
   20  C  3  S    0.000000  -0.000000   0.535057   0.073872  -0.383452
   21  C  3  X    0.000000  -0.109731  -0.212330  -0.094934  -0.092399
   22  C  3  Y    0.000000   0.190060  -0.122589  -0.054810  -0.053347
   23  C  3  Z    0.431876  -0.000000   0.000000  -0.000000   0.000000
   24  C  3  S    0.000000  -0.000000  -0.376083   4.778772   0.573357
   25  C  3  X    0.000000  -2.062313   0.169959  -3.065419   0.267739
   26  C  3  Y    0.000000   3.572031   0.098126  -1.769820   0.154579
   27  C  3  Z   -0.300359  -0.000000   0.000000  -0.000000   0.000000
   28  C  4  S    0.000000  -0.000000  -0.004670   0.120073  -0.009353
   29  C  4  S    0.000000  -0.000000   0.535057  -0.073872  -0.383452
   30  C  4  X    0.000000  -0.219463   0.000000  -0.000000   0.000000
   31  C  4  Y    0.000000  -0.000000  -0.245177   0.109620  -0.106693
   32  C  4  Z    0.431876  -0.000000   0.000000  -0.000000   0.000000
   33  C  4  S    0.000000  -0.000000  -0.376083  -4.778772   0.573357
   34  C  4  X    0.000000  -4.124626   0.000000  -0.000000   0.000000
   35  C  4  Y    0.000000  -0.000000   0.196252   3.539640   0.309158
   36  C  4  Z   -0.300359  -0.000000   0.000000  -0.000000   0.000000
   37  C  5  S    0.000000  -0.000000  -0.004670  -0.120073  -0.009353
   38  C  5  S    0.000000  -0.000000   0.535057   0.073872  -0.383452
   39  C  5  X    0.000000  -0.109731   0.212330   0.094934   0.092399
   40  C  5  Y    0.000000  -0.190060  -0.122589  -0.054810  -0.053347
   41  C  5  Z    0.431876  -0.000000   0.000000  -0.000000   0.000000
   42  C  5  S    0.000000  -0.000000  -0.376083   4.778772   0.573357
   43  C  5  X    0.000000  -2.062313  -0.169959   3.065419  -0.267739
   44  C  5  Y    0.000000  -3.572031   0.098126  -1.769820   0.154579
   45  C  5  Z   -0.300359  -0.000000   0.000000  -0.000000   0.000000
   46  C  6  S    0.000000  -0.000000  -0.004670   0.120073  -0.009353
   47  C  6  S    0.000000  -0.000000   0.535057  -0.073872  -0.383452
   48  C  6  X    0.000000   0.109731   0.212330  -0.094934   0.092399
   49  C  6  Y    0.000000  -0.190060   0.122589  -0.054810   0.053347
   50  C  6  Z    0.431876  -0.000000   0.000000  -0.000000   0.000000
   51  C  6  S    0.000000  -0.000000  -0.376083  -4.778772   0.573357
   52  C  6  X    0.000000   2.062313  -0.169959  -3.065419  -0.267739
   53  C  6  Y    0.000000  -3.572031  -0.098126  -1.769820  -0.154579
   54  C  6  Z   -0.300359  -0.000000   0.000000  -0.000000   0.000000
   55  H  7  S    0.000000  -0.000000  -0.097525  -0.161253  -0.382327
   56  H  7  S    0.000000  -0.000000   0.137405   1.328767  -0.106726
   57  H  8  S    0.000000  -0.000000  -0.097525   0.161253  -0.382327
   58  H  8  S    0.000000  -0.000000   0.137405  -1.328767  -0.106726
   59  H  9  S    0.000000  -0.000000  -0.097525  -0.161253  -0.382327
   60  H  9  S    0.000000  -0.000000   0.137405   1.328767  -0.106726
   61  H 10  S    0.000000  -0.000000  -0.097525   0.161253  -0.382327
   62  H 10  S    0.000000  -0.000000   0.137405  -1.328767  -0.106726
   63  H 11  S    0.000000  -0.000000  -0.097525  -0.161253  -0.382327
   64  H 11  S    0.000000  -0.000000   0.137405   1.328767  -0.106726
   65  H 12  S    0.000000  -0.000000  -0.097525   0.161253  -0.382327
   66  H 12  S    0.000000  -0.000000   0.137405  -1.328767  -0.106726

                     41         42         43         44         45
                    0.8445     0.8445     0.8817     0.8817     0.8985
                     E1G        E1G        E2G        E2G        E1U 
    1  C  1  S    0.000000  -0.000000  -0.082885  -0.000000  -0.000000
    2  C  1  S    0.000000  -0.000000  -0.007247  -0.000000  -0.000000
    3  C  1  X    0.000000  -0.000000   0.000000   0.577550   0.492953
    4  C  1  Y    0.000000  -0.000000   0.217110  -0.000000  -0.000000
    5  C  1  Z    0.631648  -0.000000   0.000000  -0.000000  -0.000000
    6  C  1  S    0.000000  -0.000000   0.530306  -0.000000  -0.000000
    7  C  1  X    0.000000  -0.000000   0.000000  -0.436059  -0.125348
    8  C  1  Y    0.000000  -0.000000   0.309613  -0.000000  -0.000000
    9  C  1  Z   -0.595540  -0.000000   0.000000  -0.000000  -0.000000
   10  C  2  S    0.000000  -0.000000   0.041442   0.071780   0.035259
   11  C  2  S    0.000000  -0.000000   0.003623   0.006276   0.585932
   12  C  2  X    0.000000  -0.000000   0.344098   0.018445   0.130331
   13  C  2  Y    0.000000  -0.000000   0.378885  -0.344098   0.209360
   14  C  2  Z    0.315824  -0.547023   0.000000  -0.000000  -0.000000
   15  C  2  S    0.000000  -0.000000  -0.265153  -0.459259  -0.858610
   16  C  2  X    0.000000  -0.000000  -0.054753   0.341224  -0.069992
   17  C  2  Y    0.000000  -0.000000  -0.404447   0.054753  -0.031960
   18  C  2  Z   -0.297770   0.515752   0.000000  -0.000000  -0.000000
   19  C  3  S    0.000000  -0.000000   0.041442  -0.071780   0.035259
   20  C  3  S    0.000000  -0.000000   0.003623  -0.006276   0.585932
   21  C  3  X    0.000000  -0.000000   0.344098  -0.018445   0.130331
   22  C  3  Y    0.000000  -0.000000  -0.378885  -0.344098  -0.209360
   23  C  3  Z   -0.315824  -0.547023   0.000000  -0.000000  -0.000000
   24  C  3  S    0.000000  -0.000000  -0.265153   0.459259  -0.858610
   25  C  3  X    0.000000  -0.000000  -0.054753  -0.341224  -0.069992
   26  C  3  Y    0.000000  -0.000000   0.404447   0.054753   0.031960
   27  C  3  Z    0.297770   0.515752   0.000000  -0.000000  -0.000000
   28  C  4  S    0.000000  -0.000000  -0.082885  -0.000000  -0.000000
   29  C  4  S    0.000000  -0.000000  -0.007247  -0.000000  -0.000000
   30  C  4  X    0.000000  -0.000000   0.000000  -0.577550   0.492953
   31  C  4  Y    0.000000  -0.000000  -0.217110  -0.000000  -0.000000
   32  C  4  Z   -0.631648  -0.000000   0.000000  -0.000000  -0.000000
   33  C  4  S    0.000000  -0.000000   0.530306  -0.000000  -0.000000
   34  C  4  X    0.000000  -0.000000   0.000000   0.436059  -0.125348
   35  C  4  Y    0.000000  -0.000000  -0.309613  -0.000000  -0.000000
   36  C  4  Z    0.595540  -0.000000   0.000000  -0.000000  -0.000000
   37  C  5  S    0.000000  -0.000000   0.041442   0.071780  -0.035259
   38  C  5  S    0.000000  -0.000000   0.003623   0.006276  -0.585932
   39  C  5  X    0.000000  -0.000000  -0.344098  -0.018445   0.130331
   40  C  5  Y    0.000000  -0.000000  -0.378885   0.344098   0.209360
   41  C  5  Z   -0.315824   0.547023   0.000000  -0.000000  -0.000000
   42  C  5  S    0.000000  -0.000000  -0.265153  -0.459259   0.858610
   43  C  5  X    0.000000  -0.000000   0.054753  -0.341224  -0.069992
   44  C  5  Y    0.000000  -0.000000   0.404447  -0.054753  -0.031960
   45  C  5  Z    0.297770  -0.515752   0.000000  -0.000000  -0.000000
   46  C  6  S    0.000000  -0.000000   0.041442  -0.071780  -0.035259
   47  C  6  S    0.000000  -0.000000   0.003623  -0.006276  -0.585932
   48  C  6  X    0.000000  -0.000000  -0.344098   0.018445   0.130331
   49  C  6  Y    0.000000  -0.000000   0.378885   0.344098  -0.209360
   50  C  6  Z    0.315824   0.547023   0.000000  -0.000000  -0.000000
   51  C  6  S    0.000000  -0.000000  -0.265153   0.459259   0.858610
   52  C  6  X    0.000000  -0.000000   0.054753   0.341224  -0.069992
   53  C  6  Y    0.000000  -0.000000  -0.404447  -0.054753   0.031960
   54  C  6  Z   -0.297770  -0.515752   0.000000  -0.000000  -0.000000
   55  H  7  S    0.000000  -0.000000  -0.272689  -0.000000  -0.000000
   56  H  7  S    0.000000  -0.000000   0.164823  -0.000000  -0.000000
   57  H  8  S    0.000000  -0.000000   0.136344   0.236155   0.269013
   58  H  8  S    0.000000  -0.000000  -0.082411  -0.142741   0.156910
   59  H  9  S    0.000000  -0.000000   0.136344  -0.236155   0.269013
   60  H  9  S    0.000000  -0.000000  -0.082411   0.142741   0.156910
   61  H 10  S    0.000000  -0.000000  -0.272689  -0.000000  -0.000000
   62  H 10  S    0.000000  -0.000000   0.164823  -0.000000  -0.000000
   63  H 11  S    0.000000  -0.000000   0.136344   0.236155  -0.269013
   64  H 11  S    0.000000  -0.000000  -0.082411  -0.142741  -0.156910
   65  H 12  S    0.000000  -0.000000   0.136344  -0.236155  -0.269013
   66  H 12  S    0.000000  -0.000000  -0.082411   0.142741  -0.156910

                     46         47         48         49         50
                    0.8985     0.9176     0.9176     0.9946     1.1405
                     E1U        E2U        E2U        B1G        E2G 
    1  C  1  S   -0.040713  -0.000000  -0.000000   0.000000  -0.025454
    2  C  1  S   -0.676576  -0.000000  -0.000000   0.000000   0.277275
    3  C  1  X   -0.000000  -0.000000  -0.000000   0.000000  -0.000000
    4  C  1  Y    0.009457  -0.000000  -0.000000   0.000000  -0.702884
    5  C  1  Z   -0.000000  -0.000000  -0.663866  -0.479078  -0.000000
    6  C  1  S    0.991438  -0.000000  -0.000000   0.000000  -0.031251
    7  C  1  X   -0.000000  -0.000000  -0.000000   0.000000  -0.000000
    8  C  1  Y   -0.051540  -0.000000  -0.000000   0.000000   2.517057
    9  C  1  Z   -0.000000  -0.000000   0.991292   1.114583  -0.000000
   10  C  2  S   -0.020357  -0.000000  -0.000000   0.000000   0.012727
   11  C  2  S   -0.338288  -0.000000  -0.000000   0.000000  -0.138638
   12  C  2  X    0.209360  -0.000000  -0.000000   0.000000  -0.283665
   13  C  2  Y    0.372079  -0.000000  -0.000000   0.000000   0.211561
   14  C  2  Z   -0.000000   0.574925   0.331933   0.479078  -0.000000
   15  C  2  S    0.495719  -0.000000  -0.000000   0.000000   0.015625
   16  C  2  X   -0.031960  -0.000000  -0.000000   0.000000   1.039535
   17  C  2  Y   -0.106896  -0.000000  -0.000000   0.000000  -0.716529
   18  C  2  Z   -0.000000  -0.858484  -0.495646  -1.114583  -0.000000
   19  C  3  S    0.020357  -0.000000  -0.000000   0.000000   0.012727
   20  C  3  S    0.338288  -0.000000  -0.000000   0.000000  -0.138638
   21  C  3  X   -0.209360  -0.000000  -0.000000   0.000000  -0.283665
   22  C  3  Y    0.372079  -0.000000  -0.000000   0.000000  -0.211561
   23  C  3  Z   -0.000000  -0.574925   0.331933  -0.479078  -0.000000
   24  C  3  S   -0.495719  -0.000000  -0.000000   0.000000   0.015625
   25  C  3  X    0.031960  -0.000000  -0.000000   0.000000   1.039535
   26  C  3  Y   -0.106896  -0.000000  -0.000000   0.000000   0.716529
   27  C  3  Z   -0.000000   0.858484  -0.495646   1.114583  -0.000000
   28  C  4  S    0.040713  -0.000000  -0.000000   0.000000  -0.025454
   29  C  4  S    0.676576  -0.000000  -0.000000   0.000000   0.277275
   30  C  4  X   -0.000000  -0.000000  -0.000000   0.000000  -0.000000
   31  C  4  Y    0.009457  -0.000000  -0.000000   0.000000   0.702884
   32  C  4  Z   -0.000000  -0.000000  -0.663866   0.479078  -0.000000
   33  C  4  S   -0.991438  -0.000000  -0.000000   0.000000  -0.031251
   34  C  4  X   -0.000000  -0.000000  -0.000000   0.000000  -0.000000
   35  C  4  Y   -0.051540  -0.000000  -0.000000   0.000000  -2.517057
   36  C  4  Z   -0.000000  -0.000000   0.991292  -1.114583  -0.000000
   37  C  5  S    0.020357  -0.000000  -0.000000   0.000000   0.012727
   38  C  5  S    0.338288  -0.000000  -0.000000   0.000000  -0.138638
   39  C  5  X    0.209360  -0.000000  -0.000000   0.000000   0.283665
   40  C  5  Y    0.372079  -0.000000  -0.000000   0.000000  -0.211561
   41  C  5  Z   -0.000000   0.574925   0.331933  -0.479078  -0.000000
   42  C  5  S   -0.495719  -0.000000  -0.000000   0.000000   0.015625
   43  C  5  X   -0.031960  -0.000000  -0.000000   0.000000  -1.039535
   44  C  5  Y   -0.106896  -0.000000  -0.000000   0.000000   0.716529
   45  C  5  Z   -0.000000  -0.858484  -0.495646   1.114583  -0.000000
   46  C  6  S   -0.020357  -0.000000  -0.000000   0.000000   0.012727
   47  C  6  S   -0.338288  -0.000000  -0.000000   0.000000  -0.138638
   48  C  6  X   -0.209360  -0.000000  -0.000000   0.000000   0.283665
   49  C  6  Y    0.372079  -0.000000  -0.000000   0.000000   0.211561
   50  C  6  Z   -0.000000  -0.574925   0.331933   0.479078  -0.000000
   51  C  6  S    0.495719  -0.000000  -0.000000   0.000000   0.015625
   52  C  6  X    0.031960  -0.000000  -0.000000   0.000000  -1.039535
   53  C  6  Y   -0.106896  -0.000000  -0.000000   0.000000  -0.716529
   54  C  6  Z   -0.000000   0.858484  -0.495646  -1.114583  -0.000000
   55  H  7  S   -0.310630  -0.000000  -0.000000   0.000000  -0.298268
   56  H  7  S   -0.181184  -0.000000  -0.000000   0.000000   1.736310
   57  H  8  S   -0.155315  -0.000000  -0.000000   0.000000   0.149134
   58  H  8  S   -0.090592  -0.000000  -0.000000   0.000000  -0.868155
   59  H  9  S    0.155315  -0.000000  -0.000000   0.000000   0.149134
   60  H  9  S    0.090592  -0.000000  -0.000000   0.000000  -0.868155
   61  H 10  S    0.310630  -0.000000  -0.000000   0.000000  -0.298268
   62  H 10  S    0.181184  -0.000000  -0.000000   0.000000   1.736310
   63  H 11  S    0.155315  -0.000000  -0.000000   0.000000   0.149134
   64  H 11  S    0.090592  -0.000000  -0.000000   0.000000  -0.868155
   65  H 12  S   -0.155315  -0.000000  -0.000000   0.000000   0.149134
   66  H 12  S   -0.090592  -0.000000  -0.000000   0.000000  -0.868155

                     51         52         53         54         55
                    1.1405     1.1429     1.1712     1.1712     1.2524
                     E2G        B2U        E1U        E1U        A1G 
    1  C  1  S   -0.000000   0.005434   0.000000   0.028673  -0.007627
    2  C  1  S   -0.000000   0.076211   0.000000  -0.666209   0.404216
    3  C  1  X   -0.047787   0.000000  -0.215964   0.000000  -0.000000
    4  C  1  Y   -0.000000  -0.561693   0.000000   0.547154  -0.392448
    5  C  1  Z   -0.000000   0.000000   0.000000   0.000000  -0.000000
    6  C  1  S   -0.000000   1.966377   0.000000   2.173412  -0.777456
    7  C  1  X    0.116354   0.000000   1.106174   0.000000  -0.000000
    8  C  1  Y   -0.000000   2.920711   0.000000  -1.178193   0.479828
    9  C  1  Z   -0.000000   0.000000   0.000000   0.000000  -0.000000
   10  C  2  S   -0.022044  -0.005434  -0.024832   0.014337  -0.007627
   11  C  2  S    0.240128  -0.076211   0.576954  -0.333105   0.404216
   12  C  2  X    0.539110  -0.486440   0.356375  -0.330440   0.339870
   13  C  2  Y   -0.283665   0.280846  -0.330440  -0.025185  -0.196224
   14  C  2  Z   -0.000000   0.000000   0.000000   0.000000  -0.000000
   15  C  2  S   -0.027064  -1.966377  -1.882230   1.086706  -0.777456
   16  C  2  X   -1.916881   2.529410  -0.607101   0.989160  -0.415543
   17  C  2  Y    1.039535  -1.460355   0.989160   0.535082   0.239914
   18  C  2  Z   -0.000000   0.000000   0.000000   0.000000  -0.000000
   19  C  3  S    0.022044   0.005434  -0.024832  -0.014337  -0.007627
   20  C  3  S   -0.240128   0.076211   0.576954   0.333105   0.404216
   21  C  3  X   -0.539110   0.486440   0.356375   0.330440   0.339870
   22  C  3  Y   -0.283665   0.280846   0.330440  -0.025185   0.196224
   23  C  3  Z   -0.000000   0.000000   0.000000   0.000000  -0.000000
   24  C  3  S    0.027064   1.966377  -1.882230  -1.086706  -0.777456
   25  C  3  X    1.916881  -2.529410  -0.607101  -0.989160  -0.415543
   26  C  3  Y    1.039535  -1.460355  -0.989160   0.535082  -0.239914
   27  C  3  Z   -0.000000   0.000000   0.000000   0.000000  -0.000000
   28  C  4  S   -0.000000  -0.005434   0.000000  -0.028673  -0.007627
   29  C  4  S   -0.000000  -0.076211   0.000000   0.666209   0.404216
   30  C  4  X    0.047787   0.000000  -0.215964   0.000000  -0.000000
   31  C  4  Y   -0.000000  -0.561693   0.000000   0.547154   0.392448
   32  C  4  Z   -0.000000   0.000000   0.000000   0.000000  -0.000000
   33  C  4  S   -0.000000  -1.966377   0.000000  -2.173412  -0.777456
   34  C  4  X   -0.116354   0.000000   1.106174   0.000000  -0.000000
   35  C  4  Y   -0.000000   2.920711   0.000000  -1.178193  -0.479828
   36  C  4  Z   -0.000000   0.000000   0.000000   0.000000  -0.000000
   37  C  5  S   -0.022044   0.005434   0.024832  -0.014337  -0.007627
   38  C  5  S    0.240128   0.076211  -0.576954   0.333105   0.404216
   39  C  5  X   -0.539110  -0.486440   0.356375  -0.330440  -0.339870
   40  C  5  Y    0.283665   0.280846  -0.330440  -0.025185   0.196224
   41  C  5  Z   -0.000000   0.000000   0.000000   0.000000  -0.000000
   42  C  5  S   -0.027064   1.966377   1.882230  -1.086706  -0.777456
   43  C  5  X    1.916881   2.529410  -0.607101   0.989160   0.415543
   44  C  5  Y   -1.039535  -1.460355   0.989160   0.535082  -0.239914
   45  C  5  Z   -0.000000   0.000000   0.000000   0.000000  -0.000000
   46  C  6  S    0.022044  -0.005434   0.024832   0.014337  -0.007627
   47  C  6  S   -0.240128  -0.076211  -0.576954  -0.333105   0.404216
   48  C  6  X    0.539110   0.486440   0.356375   0.330440  -0.339870
   49  C  6  Y    0.283665   0.280846   0.330440  -0.025185  -0.196224
   50  C  6  Z   -0.000000   0.000000   0.000000   0.000000  -0.000000
   51  C  6  S    0.027064  -1.966377   1.882230   1.086706  -0.777456
   52  C  6  X   -1.916881  -2.529410  -0.607101  -0.989160   0.415543
   53  C  6  Y   -1.039535  -1.460355  -0.989160   0.535082   0.239914
   54  C  6  Z   -0.000000   0.000000   0.000000   0.000000  -0.000000
   55  H  7  S   -0.000000  -0.015696   0.000000   0.327527  -0.367943
   56  H  7  S   -0.000000   1.326415   0.000000  -1.349385   0.788858
   57  H  8  S   -0.258307   0.015696  -0.283647   0.163763  -0.367943
   58  H  8  S    1.503688  -1.326415   1.168602  -0.674693   0.788858
   59  H  9  S    0.258307  -0.015696  -0.283647  -0.163763  -0.367943
   60  H  9  S   -1.503688   1.326415   1.168602   0.674693   0.788858
   61  H 10  S   -0.000000   0.015696   0.000000  -0.327527  -0.367943
   62  H 10  S   -0.000000  -1.326415   0.000000   1.349385   0.788858
   63  H 11  S   -0.258307  -0.015696   0.283647  -0.163763  -0.367943
   64  H 11  S    1.503688   1.326415  -1.168602   0.674693   0.788858
   65  H 12  S    0.258307   0.015696   0.283647   0.163763  -0.367943
   66  H 12  S   -1.503688  -1.326415  -1.168602  -0.674693   0.788858

                     56         57         58         59         60
                    1.2756     1.2756     1.2866     1.3629     1.3629
                     E1U        E1U        A2G        E2G        E2G 
    1  C  1  S   -0.000000  -0.015398  -0.000000  -0.029218  -0.000000
    2  C  1  S   -0.000000  -0.655735  -0.000000  -1.255136  -0.000000
    3  C  1  X   -0.583399  -0.000000  -0.609504   0.000000  -0.160664
    4  C  1  Y   -0.000000  -0.312827  -0.000000  -0.135405  -0.000000
    5  C  1  Z   -0.000000  -0.000000  -0.000000   0.000000  -0.000000
    6  C  1  S   -0.000000   2.722454  -0.000000   4.327125  -0.000000
    7  C  1  X    2.600688  -0.000000   3.579243   0.000000   1.054454
    8  C  1  Y   -0.000000   0.482789  -0.000000   0.429982  -0.000000
    9  C  1  Z   -0.000000  -0.000000  -0.000000   0.000000  -0.000000
   10  C  2  S    0.013335  -0.007699  -0.000000   0.014609   0.025303
   11  C  2  S    0.567883  -0.327867  -0.000000   0.627568   1.086980
   12  C  2  X   -0.380470  -0.117161  -0.304752  -0.128202  -0.061388
   13  C  2  Y   -0.117161  -0.515756  -0.527846  -0.086647   0.128202
   14  C  2  Z   -0.000000  -0.000000  -0.000000   0.000000  -0.000000
   15  C  2  S   -2.357715   1.361227  -0.000000  -2.163562  -3.747400
   16  C  2  X    1.012264   0.917077   1.789621   0.642780   0.058873
   17  C  2  Y    0.917077   2.071213   3.099715   0.683345  -0.642780
   18  C  2  Z   -0.000000  -0.000000  -0.000000   0.000000  -0.000000
   19  C  3  S    0.013335   0.007699  -0.000000   0.014609  -0.025303
   20  C  3  S    0.567883   0.327867  -0.000000   0.627568  -1.086980
   21  C  3  X   -0.380470   0.117161   0.304752  -0.128202   0.061388
   22  C  3  Y    0.117161  -0.515756  -0.527846   0.086647   0.128202
   23  C  3  Z   -0.000000  -0.000000  -0.000000   0.000000  -0.000000
   24  C  3  S   -2.357715  -1.361227  -0.000000  -2.163562   3.747400
   25  C  3  X    1.012264  -0.917077  -1.789621   0.642780  -0.058873
   26  C  3  Y   -0.917077   2.071213   3.099715  -0.683345  -0.642780
   27  C  3  Z   -0.000000  -0.000000  -0.000000   0.000000  -0.000000
   28  C  4  S   -0.000000   0.015398  -0.000000  -0.029218  -0.000000
   29  C  4  S   -0.000000   0.655735  -0.000000  -1.255136  -0.000000
   30  C  4  X   -0.583399  -0.000000   0.609504   0.000000   0.160664
   31  C  4  Y   -0.000000  -0.312827  -0.000000   0.135405  -0.000000
   32  C  4  Z   -0.000000  -0.000000  -0.000000   0.000000  -0.000000
   33  C  4  S   -0.000000  -2.722454  -0.000000   4.327125  -0.000000
   34  C  4  X    2.600688  -0.000000  -3.579243   0.000000  -1.054454
   35  C  4  Y   -0.000000   0.482789  -0.000000  -0.429982  -0.000000
   36  C  4  Z   -0.000000  -0.000000  -0.000000   0.000000  -0.000000
   37  C  5  S   -0.013335   0.007699  -0.000000   0.014609   0.025303
   38  C  5  S   -0.567883   0.327867  -0.000000   0.627568   1.086980
   39  C  5  X   -0.380470  -0.117161   0.304752   0.128202   0.061388
   40  C  5  Y   -0.117161  -0.515756   0.527846   0.086647  -0.128202
   41  C  5  Z   -0.000000  -0.000000  -0.000000   0.000000  -0.000000
   42  C  5  S    2.357715  -1.361227  -0.000000  -2.163562  -3.747400
   43  C  5  X    1.012264   0.917077  -1.789621  -0.642780  -0.058873
   44  C  5  Y    0.917077   2.071213  -3.099715  -0.683345   0.642780
   45  C  5  Z   -0.000000  -0.000000  -0.000000   0.000000  -0.000000
   46  C  6  S   -0.013335  -0.007699  -0.000000   0.014609  -0.025303
   47  C  6  S   -0.567883  -0.327867  -0.000000   0.627568  -1.086980
   48  C  6  X   -0.380470   0.117161  -0.304752   0.128202  -0.061388
   49  C  6  Y    0.117161  -0.515756   0.527846  -0.086647  -0.128202
   50  C  6  Z   -0.000000  -0.000000  -0.000000   0.000000  -0.000000
   51  C  6  S    2.357715   1.361227  -0.000000  -2.163562   3.747400
   52  C  6  X    1.012264  -0.917077   1.789621  -0.642780   0.058873
   53  C  6  Y   -0.917077   2.071213  -3.099715   0.683345   0.642780
   54  C  6  Z   -0.000000  -0.000000  -0.000000   0.000000  -0.000000
   55  H  7  S   -0.000000  -0.397537  -0.000000  -0.421930  -0.000000
   56  H  7  S   -0.000000   0.384861  -0.000000  -0.221104  -0.000000
   57  H  8  S    0.344278  -0.198769  -0.000000   0.210965   0.365402
   58  H  8  S   -0.333300   0.192431  -0.000000   0.110552   0.191482
   59  H  9  S    0.344278   0.198769  -0.000000   0.210965  -0.365402
   60  H  9  S   -0.333300  -0.192431  -0.000000   0.110552  -0.191482
   61  H 10  S   -0.000000   0.397537  -0.000000  -0.421930  -0.000000
   62  H 10  S   -0.000000  -0.384861  -0.000000  -0.221104  -0.000000
   63  H 11  S   -0.344278   0.198769  -0.000000   0.210965   0.365402
   64  H 11  S    0.333300  -0.192431  -0.000000   0.110552   0.191482
   65  H 12  S   -0.344278  -0.198769  -0.000000   0.210965  -0.365402
   66  H 12  S    0.333300   0.192431  -0.000000   0.110552  -0.191482

                     61         62         63         64         65
                    1.4428     1.4428     1.4878     1.7353     1.7353
                     E1U        E1U        B2U        E2G        E2G 
[...]
   27  C  3  Z    0.000000  -0.000000   0.000000  -0.000000  -0.000000
   28  C  4  S    0.000000  -0.003262   0.016339  -0.030331  -0.000000
   29  C  4  S    0.000000   0.556360   0.697093  -0.818300  -0.000000
   30  C  4  X   -0.044910  -0.000000   0.000000  -0.000000   0.327975
   31  C  4  Y    0.000000  -0.423418  -0.124938   0.250258  -0.000000
   32  C  4  Z    0.000000  -0.000000   0.000000  -0.000000  -0.000000
   33  C  4  S    0.000000   1.499318  -1.888782   3.066838  -0.000000
   34  C  4  X    1.698159  -0.000000   0.000000  -0.000000  -0.108376
   35  C  4  Y    0.000000   1.539382  -0.452315  -3.914851  -0.000000
   36  C  4  Z    0.000000  -0.000000   0.000000  -0.000000  -0.000000
   37  C  5  S   -0.002825  -0.001631  -0.016339   0.015166  -0.026268
   38  C  5  S    0.481822   0.278180  -0.697093   0.409150  -0.708668
   39  C  5  X    0.306336   0.202792  -0.108200  -0.033653  -0.269687
   40  C  5  Y   -0.202792  -0.072172   0.062469  -0.308546  -0.033653
   41  C  5  Z    0.000000  -0.000000   0.000000  -0.000000  -0.000000
   42  C  5  S    1.298448   0.749659   1.888782  -1.533419   2.655960
   43  C  5  X   -0.729997  -1.401897  -0.391716  -1.648252   2.963232
   44  C  5  Y    1.401897  -0.888774   0.226157   1.059994  -1.648252
   45  C  5  Z    0.000000  -0.000000   0.000000  -0.000000  -0.000000
   46  C  6  S   -0.002825   0.001631   0.016339   0.015166   0.026268
   47  C  6  S    0.481822  -0.278180   0.697093   0.409150   0.708668
   48  C  6  X    0.306336  -0.202792   0.108200  -0.033653   0.269687
   49  C  6  Y    0.202792  -0.072172   0.062469   0.308546  -0.033653
   50  C  6  Z    0.000000  -0.000000   0.000000  -0.000000  -0.000000
   51  C  6  S    1.298448  -0.749659  -1.888782  -1.533419  -2.655960
   52  C  6  X   -0.729997   1.401897   0.391716  -1.648252  -2.963232
   53  C  6  Y   -1.401897  -0.888774   0.226157  -1.059994  -1.648252
   54  C  6  Z    0.000000  -0.000000   0.000000  -0.000000  -0.000000
   55  H  7  S    0.000000   0.571666  -0.475407   0.685935  -0.000000
   56  H  7  S    0.000000   0.637348  -0.335135   1.161710  -0.000000
   57  H  8  S    0.495077   0.285833   0.475407  -0.342968   0.594037
   58  H  8  S    0.551959   0.318674   0.335135  -0.580855   1.006070
   59  H  9  S    0.495077  -0.285833  -0.475407  -0.342968  -0.594037
   60  H  9  S    0.551959  -0.318674  -0.335135  -0.580855  -1.006070
   61  H 10  S    0.000000  -0.571666   0.475407   0.685935  -0.000000
   62  H 10  S    0.000000  -0.637348   0.335135   1.161710  -0.000000
   63  H 11  S   -0.495077  -0.285833  -0.475407  -0.342968   0.594037
   64  H 11  S   -0.551959  -0.318674  -0.335135  -0.580855   1.006070
   65  H 12  S   -0.495077   0.285833   0.475407  -0.342968  -0.594037
   66  H 12  S   -0.551959   0.318674   0.335135  -0.580855  -1.006070

                     66
                    2.1835
                     B2U 
    1  C  1  S   -0.094339
    2  C  1  S   -1.196186
    3  C  1  X    0.000000
    4  C  1  Y   -0.047761
    5  C  1  Z    0.000000
    6  C  1  S   12.040132
    7  C  1  X    0.000000
    8  C  1  Y    7.533033
    9  C  1  Z    0.000000
   10  C  2  S    0.094339
   11  C  2  S    1.196186
   12  C  2  X   -0.041363
   13  C  2  Y    0.023881
   14  C  2  Z    0.000000
   15  C  2  S  -12.040132
   16  C  2  X    6.523798
   17  C  2  Y   -3.766516
   18  C  2  Z    0.000000
   19  C  3  S   -0.094339
   20  C  3  S   -1.196186
   21  C  3  X    0.041363
   22  C  3  Y    0.023881
   23  C  3  Z    0.000000
   24  C  3  S   12.040132
   25  C  3  X   -6.523798
   26  C  3  Y   -3.766516
   27  C  3  Z    0.000000
   28  C  4  S    0.094339
   29  C  4  S    1.196186
   30  C  4  X    0.000000
   31  C  4  Y   -0.047761
   32  C  4  Z    0.000000
   33  C  4  S  -12.040132
   34  C  4  X    0.000000
   35  C  4  Y    7.533033
   36  C  4  Z    0.000000
   37  C  5  S   -0.094339
   38  C  5  S   -1.196186
   39  C  5  X   -0.041363
   40  C  5  Y    0.023881
   41  C  5  Z    0.000000
   42  C  5  S   12.040132
   43  C  5  X    6.523798
   44  C  5  Y   -3.766516
   45  C  5  Z    0.000000
   46  C  6  S    0.094339
   47  C  6  S    1.196186
   48  C  6  X    0.041363
   49  C  6  Y    0.023881
   50  C  6  Z    0.000000
   51  C  6  S  -12.040132
   52  C  6  X   -6.523798
   53  C  6  Y   -3.766516
   54  C  6  Z    0.000000
   55  H  7  S    0.493546
   56  H  7  S    1.671824
   57  H  8  S   -0.493546
   58  H  8  S   -1.671824
   59  H  9  S    0.493546
   60  H  9  S    1.671824
   61  H 10  S   -0.493546
   62  H 10  S   -1.671824
   63  H 11  S    0.493546
   64  H 11  S    1.671824
   65  H 12  S   -0.493546
   66  H 12  S   -1.671824
 ...... END OF RHF CALCULATION ......
 STEP CPU TIME =     0.06 TOTAL CPU TIME =        0.1 (    0.0 MIN)
 TOTAL WALL CLOCK TIME=        0.2 SECONDS, CPU UTILIZATION IS  87.50%

     ----------------------------------------------------------------
     PROPERTY VALUES FOR THE RHF   SELF-CONSISTENT FIELD WAVEFUNCTION
     ----------------------------------------------------------------

          -----------------
          ENERGY COMPONENTS
          -----------------

         WAVEFUNCTION NORMALIZATION =       1.0000000000

                ONE ELECTRON ENERGY =    -715.8021154019
                TWO ELECTRON ENERGY =     280.3661874136
           NUCLEAR REPULSION ENERGY =     204.8115039161
                                      ------------------
                       TOTAL ENERGY =    -230.6244240721

 ELECTRON-ELECTRON POTENTIAL ENERGY =     280.3661874136
  NUCLEUS-ELECTRON POTENTIAL ENERGY =    -946.7202263994
   NUCLEUS-NUCLEUS POTENTIAL ENERGY =     204.8115039161
                                      ------------------
             TOTAL POTENTIAL ENERGY =    -461.5425350696
               TOTAL KINETIC ENERGY =     230.9181109975
                 VIRIAL RATIO (V/T) =       1.9987281772

  ...... PI ENERGY ANALYSIS ......

 ENERGY ANALYSIS:
            FOCK ENERGY=   -155.0697392424
          BARE H ENERGY=   -715.8021154019
     ELECTRONIC ENERGY =   -435.4359273221
         KINETIC ENERGY=    230.9181109975
          N-N REPULSION=    204.8115039161
           TOTAL ENERGY=   -230.6244234060
        SIGMA PART(1+2)=   -396.8470681773
               (K,V1,2)=    224.9892834455   -865.9560809870    244.1197293643
           PI PART(1+2)=    -38.5888591448
               (K,V1,2)=      5.9288275520    -80.7641454123     36.2464587154
  SIGMA SKELETON, ERROR=   -192.0355642612      0.0000000000
             MIXED PART= 0.00000E+00 0.00000E+00 0.00000E+00 0.00000E+00
 ...... END OF PI ENERGY ANALYSIS ......

          ---------------------------------------
          MULLIKEN AND LOWDIN POPULATION ANALYSES
          ---------------------------------------

     ATOMIC MULLIKEN POPULATION IN EACH MOLECULAR ORBITAL

                      1          2          3          4          5

                  2.000000   2.000000   2.000000   2.000000   2.000000

    1             0.333211   0.000444   0.666093   0.666220   0.000392
    2             0.333211   0.499681   0.166856   0.166849   0.499763
    3             0.333211   0.499681   0.166856   0.166849   0.499763
    4             0.333211   0.000444   0.666093   0.666220   0.000392
    5             0.333211   0.499681   0.166856   0.166849   0.499763
    6             0.333211   0.499681   0.166856   0.166849   0.499763
    7             0.000122   0.000000   0.000130   0.000055   0.000000
    8             0.000122   0.000097   0.000032   0.000014   0.000041
    9             0.000122   0.000097   0.000032   0.000014   0.000041
   10             0.000122   0.000000   0.000130   0.000055   0.000000
   11             0.000122   0.000097   0.000032   0.000014   0.000041
   12             0.000122   0.000097   0.000032   0.000014   0.000041

                      6          7          8          9         10

                  2.000000   2.000000   2.000000   2.000000   2.000000

    1             0.333398   0.322141   0.076001   0.540152   0.329705
    2             0.333398   0.322141   0.424114   0.192039   0.259681
    3             0.333398   0.322141   0.424114   0.192039   0.259681
    4             0.333398   0.322141   0.076001   0.540152   0.329705
    5             0.333398   0.322141   0.424114   0.192039   0.259681
    6             0.333398   0.322141   0.424114   0.192039   0.259681
    7            -0.000065   0.011192   0.000000   0.050514   0.100622
    8            -0.000065   0.011192   0.037885   0.012628   0.025156
    9            -0.000065   0.011192   0.037885   0.012628   0.025156
   10            -0.000065   0.011192   0.000000   0.050514   0.100622
   11            -0.000065   0.011192   0.037885   0.012628   0.025156
   12            -0.000065   0.011192   0.037885   0.012628   0.025156

                     11         12         13         14         15

                  2.000000   2.000000   2.000000   2.000000   2.000000

    1             0.236339   0.231888   0.206427   0.333333   0.021821
    2             0.306364   0.231888   0.206427   0.333333   0.325641
    3             0.306364   0.231888   0.206427   0.333333   0.325641
    4             0.236339   0.231888   0.206427   0.333333   0.021821
    5             0.306364   0.231888   0.206427   0.333333   0.325641
    6             0.306364   0.231888   0.206427   0.333333   0.325641
    7             0.000000   0.101445   0.126907   0.000000   0.000000
    8             0.075467   0.101445   0.126907   0.000000   0.163448
    9             0.075467   0.101445   0.126907   0.000000   0.163448
   10             0.000000   0.101445   0.126907   0.000000   0.000000
   11             0.075467   0.101445   0.126907   0.000000   0.163448
   12             0.075467   0.101445   0.126907   0.000000   0.163448

                     16         17         18         19         20

                  2.000000   2.000000   2.000000   2.000000   2.000000

    1             0.426914   0.333333   0.233200   0.241457   0.666667
    2             0.123095   0.333333   0.239393   0.235264   0.166667
    3             0.123095   0.333333   0.239393   0.235264   0.166667
    4             0.426914   0.333333   0.233200   0.241457   0.666667
    5             0.123095   0.333333   0.239393   0.235264   0.166667
    6             0.123095   0.333333   0.239393   0.235264   0.166667
    7             0.217931   0.000000   0.192009   0.000000   0.000000
    8             0.054483   0.000000   0.048002   0.144007   0.000000
    9             0.054483   0.000000   0.048002   0.144007   0.000000
   10             0.217931   0.000000   0.192009   0.000000   0.000000
   11             0.054483   0.000000   0.048002   0.144007   0.000000
   12             0.054483   0.000000   0.048002   0.144007   0.000000

                     21

                  2.000000

    1             0.000000
    2             0.500000
    3             0.500000
    4             0.000000
    5             0.500000
    6             0.500000
    7             0.000000
    8             0.000000
    9             0.000000
   10             0.000000
   11             0.000000
   12             0.000000

               ----- POPULATIONS IN EACH AO -----
                             MULLIKEN      LOWDIN
              1  C  1  S      1.99776     1.98929
              2  C  1  S      0.69883     0.54969
              3  C  1  X      0.76279     0.71188
              4  C  1  Y      0.74335     0.67586
              5  C  1  Z      0.52326     0.48670
              6  C  1  S      0.47972     0.39548
              7  C  1  X      0.14700     0.37097
              8  C  1  Y      0.36970     0.42874
              9  C  1  Z      0.47674     0.51330
             10  C  2  S      1.99776     1.98929
             11  C  2  S      0.69883     0.54969
             12  C  2  X      0.74821     0.68486
             13  C  2  Y      0.75793     0.70287
             14  C  2  Z      0.52326     0.48670
             15  C  2  S      0.47972     0.39548
             16  C  2  X      0.31402     0.41429
             17  C  2  Y      0.20267     0.38541
             18  C  2  Z      0.47674     0.51330
             19  C  3  S      1.99776     1.98929
             20  C  3  S      0.69883     0.54969
             21  C  3  X      0.74821     0.68486
             22  C  3  Y      0.75793     0.70287
             23  C  3  Z      0.52326     0.48670
             24  C  3  S      0.47972     0.39548
             25  C  3  X      0.31402     0.41429
             26  C  3  Y      0.20267     0.38541
             27  C  3  Z      0.47674     0.51330
             28  C  4  S      1.99776     1.98929
             29  C  4  S      0.69883     0.54969
             30  C  4  X      0.76279     0.71188
             31  C  4  Y      0.74335     0.67586
             32  C  4  Z      0.52326     0.48670
             33  C  4  S      0.47972     0.39548
             34  C  4  X      0.14700     0.37097
             35  C  4  Y      0.36970     0.42874
             36  C  4  Z      0.47674     0.51330
             37  C  5  S      1.99776     1.98929
             38  C  5  S      0.69883     0.54969
             39  C  5  X      0.74821     0.68486
             40  C  5  Y      0.75793     0.70287
             41  C  5  Z      0.52326     0.48670
             42  C  5  S      0.47972     0.39548
             43  C  5  X      0.31402     0.41429
             44  C  5  Y      0.20267     0.38541
             45  C  5  Z      0.47674     0.51330
             46  C  6  S      1.99776     1.98929
             47  C  6  S      0.69883     0.54969
             48  C  6  X      0.74821     0.68486
             49  C  6  Y      0.75793     0.70287
             50  C  6  Z      0.52326     0.48670
             51  C  6  S      0.47972     0.39548
             52  C  6  X      0.31402     0.41429
             53  C  6  Y      0.20267     0.38541
             54  C  6  Z      0.47674     0.51330
             55  H  7  S      0.54147     0.51988
             56  H  7  S      0.25940     0.35822
             57  H  8  S      0.54147     0.51988
             58  H  8  S      0.25940     0.35822
             59  H  9  S      0.54147     0.51988
             60  H  9  S      0.25940     0.35822
             61  H 10  S      0.54147     0.51988
             62  H 10  S      0.25940     0.35822
             63  H 11  S      0.54147     0.51988
             64  H 11  S      0.25940     0.35822
             65  H 12  S      0.54147     0.51988
             66  H 12  S      0.25940     0.35822

          ----- MULLIKEN ATOMIC OVERLAP POPULATIONS -----
          (OFF-DIAGONAL ELEMENTS NEED TO BE MULTIPLIED BY 2)

             1           2           3           4           5

    1    4.9749218
    2    0.5198622   4.9749218
    3   -0.0566190   0.5198622   4.9749218
    4   -0.0336696  -0.0566190   0.5198622   4.9749218
    5   -0.0566190  -0.0336696  -0.0566190   0.5198622   4.9749218
    6    0.5198622  -0.0566190  -0.0336696  -0.0566190   0.5198622
    7    0.3753868  -0.0245750   0.0025068   0.0001494   0.0025068
    8   -0.0245750   0.3753868  -0.0245750   0.0025068   0.0001494
    9    0.0025068  -0.0245750   0.3753868  -0.0245750   0.0025068
   10    0.0001494   0.0025068  -0.0245750   0.3753868  -0.0245750
   11    0.0025068   0.0001494   0.0025068  -0.0245750   0.3753868
   12   -0.0245750   0.0025068   0.0001494   0.0025068  -0.0245750

             6           7           8           9          10

    6    4.9749218
    7   -0.0245750   0.4706158
    8    0.0025068  -0.0004653   0.4706158
    9    0.0001494  -0.0001146  -0.0004653   0.4706158
   10    0.0025068   0.0000059  -0.0001146  -0.0004653   0.4706158
   11   -0.0245750  -0.0001146   0.0000059  -0.0001146  -0.0004653
   12    0.3753868  -0.0004653  -0.0001146   0.0000059  -0.0001146

            11          12

   11    0.4706158
   12   -0.0004653   0.4706158

          TOTAL MULLIKEN AND LOWDIN ATOMIC POPULATIONS
       ATOM         MULL.POP.    CHARGE          LOW.POP.     CHARGE
    1 C             6.199138   -0.199138         6.121894   -0.121894
    2 C             6.199138   -0.199138         6.121894   -0.121894
    3 C             6.199138   -0.199138         6.121894   -0.121894
    4 C             6.199138   -0.199138         6.121894   -0.121894
    5 C             6.199138   -0.199138         6.121894   -0.121894
    6 C             6.199138   -0.199138         6.121894   -0.121894
    7 H             0.800862    0.199138         0.878106    0.121894
    8 H             0.800862    0.199138         0.878106    0.121894
    9 H             0.800862    0.199138         0.878106    0.121894
   10 H             0.800862    0.199138         0.878106    0.121894
   11 H             0.800862    0.199138         0.878106    0.121894
   12 H             0.800862    0.199138         0.878106    0.121894

          -------------------------------
          BOND ORDER AND VALENCE ANALYSIS     BOND ORDER THRESHOLD=0.050
          -------------------------------

                   BOND                       BOND                       BOND
  ATOM PAIR DIST  ORDER      ATOM PAIR DIST  ORDER      ATOM PAIR DIST  ORDER
    1   2  1.386  1.446        1   4  2.772  0.101        1   6  1.386  1.446
    1   7  1.076  0.943        2   3  1.386  1.446        2   5  2.772  0.101
    2   8  1.076  0.943        3   4  1.386  1.446        3   6  2.772  0.101
    3   9  1.076  0.943        4   5  1.386  1.446        4  10  1.076  0.943
    5   6  1.386  1.446        5  11  1.076  0.943        6  12  1.076  0.943

                       TOTAL       BONDED        FREE
      ATOM            VALENCE     VALENCE     VALENCE
    1 C                 3.861       3.861       0.000
    2 C                 3.861       3.861       0.000
    3 C                 3.861       3.861       0.000
    4 C                 3.861       3.861       0.000
    5 C                 3.861       3.861       0.000
    6 C                 3.861       3.861      -0.000
    7 H                 0.933       0.933       0.000
    8 H                 0.933       0.933       0.000
    9 H                 0.933       0.933       0.000
   10 H                 0.933       0.933       0.000
   11 H                 0.933       0.933       0.000
   12 H                 0.933       0.933       0.000

          ---------------------
          ELECTROSTATIC MOMENTS
          ---------------------

 POINT   1           X           Y           Z (BOHR)    CHARGE
                 0.000000    0.000000    0.000000        0.00 (A.U.)
         DX          DY          DZ         /D/  (DEBYE)
     0.000000   -0.000000   -0.000000    0.000000
 ...... END OF PROPERTY EVALUATION ......
 STEP CPU TIME =     0.01 TOTAL CPU TIME =        0.1 (    0.0 MIN)
 TOTAL WALL CLOCK TIME=        0.2 SECONDS, CPU UTILIZATION IS  88.24%
      580000  WORDS OF DYNAMIC MEMORY USED
 EXECUTION OF GAMESS TERMINATED NORMALLY Mon Dec  5 11:53:34 2011
 DDI: 263224 bytes (0.3 MB / 0 MWords) used by master data server.

 ----------------------------------------
 CPU timing information for all processes
 ========================================
 0: 0.128 + 0.32 = 0.160
 ----------------------------------------
 ddikick.x: exited gracefully.
unset echo
----- accounting info -----
Files used on the master node idhi were:
-rw-r--r-- 1 koushik koushik     655 2011-12-05 11:53 /home/koushik/Desktop/gamess/benzene.F05
-rw-r--r-- 1 koushik koushik 1620108 2011-12-05 11:53 /home/koushik/Desktop/gamess/benzene.F08
-rw-r--r-- 1 koushik koushik 1308800 2011-12-05 11:53 /home/koushik/Desktop/gamess/benzene.F10
-rw-r--r-- 1 koushik koushik     655 2011-12-05 11:53 /home/koushik/Desktop/gamess/benzene.inp
-rw-r--r-- 1 koushik koushik  108132 2011-12-05 11:53 /home/koushik/Desktop/gamess/benzene.log
Mon Dec  5 11:53:37 IST 2011
0.0u 0.0s 0:03.25 2.7% 0+0k 0+24io 0pf+0w
