          ******************************************************
          *         GAMESS VERSION =  1 OCT 2010 (R1)          *
          *             FROM IOWA STATE UNIVERSITY             *
          * M.W.SCHMIDT, K.K.BALDRIDGE, J.A.BOATZ, S.T.ELBERT, *
          *   M.S.GORDON, J.H.JENSEN, S.KOSEKI, N.MATSUNAGA,   *
          *          K.A.NGUYEN, S.J.SU, T.L.WINDUS,           *
          *       TOGETHER WITH M.DUPUIS, J.A.MONTGOMERY       *
          *         J.COMPUT.CHEM.  14, 1347-1363(1993)        *
          **************** 32 BIT LINUX VERSION ****************

  SINCE 1993, STUDENTS AND POSTDOCS WORKING AT IOWA STATE UNIVERSITY
  AND ALSO IN THEIR VARIOUS JOBS AFTER LEAVING ISU HAVE MADE IMPORTANT
  CONTRIBUTIONS TO THE CODE:
     IVANA ADAMOVIC, CHRISTINE AIKENS, YURI ALEXEEV, POOJA ARORA,
     ANDREY ASADCHEV, ROB BELL, PRADIPTA BANDYOPADHYAY, JONATHAN BENTZ,
     BRETT BODE, GALINA CHABAN, WEI CHEN, CHEOL HO CHOI, PAUL DAY, TIM DUDLEY,
     DMITRI FEDOROV, GRAHAM FLETCHER, MARK FREITAG, KURT GLAESEMANN, DAN KEMP,
     GRANT MERRILL, NORIYUKI MINEZAWA, JONATHAN MULLIN, TAKESHI NAGATA,
     SEAN NEDD, HEATHER NETZLOFF, BOSILJKA NJEGIC, RYAN OLSON, MIKE PAK,
     JIM SHOEMAKER, LYUDMILA SLIPCHENKO, SAROM SOK, JIE SONG,
     TETSUYA TAKETSUGU, SIMON WEBB, SOOHAENG YOO, FEDERICO ZAHARIEV

  ADDITIONAL CODE HAS BEEN PROVIDED BY COLLABORATORS IN OTHER GROUPS:
     IOWA STATE UNIVERSITY:
          JOE IVANIC, LAIMUTIS BYTAUTAS, KLAUS RUEDENBERG
     UNIVERSITY OF TOKYO: KIMIHIKO HIRAO, TAKAHITO NAKAJIMA,
          TAKAO TSUNEDA, MUNEAKI KAMIYA, SUSUMU YANAGISAWA,
          KIYOSHI YAGI, MAHITO CHIBA, SEIKEN TOKURA, NAOAKI KAWAKAMI
     UNIVERSITY OF AARHUS: FRANK JENSEN
     UNIVERSITY OF IOWA: VISVALDAS KAIRYS, HUI LI
     NATIONAL INST. OF STANDARDS AND TECHNOLOGY: WALT STEVENS, DAVID GARMER
     UNIVERSITY OF PISA: BENEDETTA MENNUCCI, JACOPO TOMASI
     UNIVERSITY OF MEMPHIS: HENRY KURTZ, PRAKASHAN KORAMBATH
     UNIVERSITY OF ALBERTA: TOBY ZENG, MARIUSZ KLOBUKOWSKI
     UNIVERSITY OF NEW ENGLAND: MARK SPACKMAN
     MIE UNIVERSITY: HIROAKI UMEDA
     MICHIGAN STATE UNIVERSITY:
          KAROL KOWALSKI, MARTA WLOCH, JEFFREY GOUR, JESSE LUTZ, PIOTR PIECUCH
     UNIVERSITY OF SILESIA: MONIKA MUSIAL, STANISLAW KUCHARSKI
     FACULTES UNIVERSITAIRES NOTRE-DAME DE LA PAIX:
          OLIVIER QUINET, BENOIT CHAMPAGNE
     UNIVERSITY OF CALIFORNIA - SANTA BARBARA: BERNARD KIRTMAN
     INSTITUTE FOR MOLECULAR SCIENCE:
          KAZUYA ISHIMURA, MICHIO KATOUDA, AND SHIGERU NAGASE
     UNIVERSITY OF NOTRE DAME: DAN CHIPMAN
     KYUSHU UNIVERSITY:
          HARUYUKI NAKANO,
          FENG LONG GU, JACEK KORCHOWIEC, MARCIN MAKOWSKI, AND YURIKO AOKI,
          HIROTOSHI MORI AND EISAKU MIYOSHI
     PENNSYLVANIA STATE UNIVERSITY:
          TZVETELIN IORDANOV, CHET SWALINA, JONATHAN SKONE,
          SHARON HAMMES-SCHIFFER
     WASEDA UNIVERSITY:
          MASATO KOBAYASHI, TOMOKO AKAMA, HIROMI NAKAI
     UNIVERSITY OF NEBRASKA:
          PEIFENG SU, DEJUN SI, YALI WANG, HUI LI
     UNIVERSITY OF ZURICH:
          ROBERTO PEVERATI, KIM BALDRIDGE
     N. COPERNICUS UNIVERSITY AND JACKSON STATE UNIVERSITY:
          MARIA BARYSZ

 EXECUTION OF GAMESS BEGUN Mon Oct  3 12:59:41 2011

            ECHO OF THE FIRST FEW INPUT CARDS -
 INPUT CARD> $CONTRL RUNTYP=OPTIMIZE COORD=ZMT UNITS=ANGS $END                              
 INPUT CARD> $BASIS  GBASIS=AM1 $END                                                        
 INPUT CARD> $DATA                                                                          
 INPUT CARD>AM1/Fullerene(C60) Optimization                                                 
 INPUT CARD>Cnh 2                                                                           
 INPUT CARD>                                                                                
 INPUT CARD>X70                                                                             
 INPUT CARD>X71   X70   3.50                                                                
 INPUT CARD>X72   X70   3.50    X71    180.00                                               
 INPUT CARD>X73   X70   3.50    X71     63.4349488229221   X72   0.00                       
 INPUT CARD>X77   X70   3.50    X71     63.4349488229221   X73  72.00                       
 INPUT CARD>X76   X70   3.50    X71     63.4349488229221   X73  144.00                      
 INPUT CARD>X75   X70   3.50    X71     63.4349488229221   X73 -144.00                      
 INPUT CARD>X74   X70   3.50    X71     63.4349488229221   X73  -72.00                      
 INPUT CARD>X78   X70   3.50    X71    116.565051177078    X73   36.00                      
 INPUT CARD>X79   X70   3.50    X71    116.565051177078    X73  108.00                      
 INPUT CARD>X80   X70   3.50    X71    116.565051177078    X73  180.00                      
 INPUT CARD>X82   X70   3.50    X71    116.565051177078    X73 -108.00                      
 INPUT CARD>X81   X70   3.50    X71    116.565051177078    X73  -36.00                      
 INPUT CARD>C2    X71   1.236   X70     80.00            X74    0.00                        
 INPUT CARD>C9    X71   1.236   X70     80.00            X74   72.00                        
 INPUT CARD>C18   X71   1.236   X70     80.00            X74  144.00                        
 INPUT CARD>C13   X71   1.236   X70     80.00            X74  -72.00                        
 INPUT CARD>C55   X71   1.236   X70     80.00            X74 -144.00                        
 INPUT CARD>C10   X72   1.236   X70     80.00            X79    0.00                        
 INPUT CARD>C34   X72   1.236   X70     80.00            X79   72.00                        
 INPUT CARD>C44   X72   1.236   X70     80.00            X79  144.00                        
 INPUT CARD>C6    X72   1.236   X70     80.00            X79  -72.00                        
 INPUT CARD>C29   X72   1.236   X70     80.00            X79 -144.00                        
 INPUT CARD>C3    X75   1.236   X70     80.00            X71    0.00                        
 INPUT CARD>C7    X75   1.236   X70     80.00            X71   72.00                        
 INPUT CARD>C22   X75   1.236   X70     80.00            X71  144.00                        
 INPUT CARD>C17   X75   1.236   X70     80.00            X71  -72.00                        
 INPUT CARD>C37   X75   1.236   X70     80.00            X71 -144.00                        
 INPUT CARD>C20   X76   1.236   X70     80.00            X71    0.00                        
 INPUT CARD>C19   X76   1.236   X70     80.00            X71   72.00                        
 INPUT CARD>C38   X76   1.236   X70     80.00            X71  144.00                        
 INPUT CARD>C57   X76   1.236   X70     80.00            X71  -72.00                        
 INPUT CARD>C59   X76   1.236   X70     80.00            X71 -144.00                        
 INPUT CARD>C56   X77   1.236   X70     80.00            X71    0.00                        
 INPUT CARD>C58   X77   1.236   X70     80.00            X71   72.00                        
 INPUT CARD>C28   X77   1.236   X70     80.00            X71  144.00                        
 INPUT CARD>C54   X77   1.236   X70     80.00            X71  -72.00                        
 INPUT CARD>C27   X77   1.236   X70     80.00            X71 -144.00                        
 INPUT CARD>C15   X73   1.236   X70     80.00            X71    0.00                        
 INPUT CARD>C53   X73   1.236   X70     80.00            X71   72.00                        
 INPUT CARD>C51   X73   1.236   X70     80.00            X71  144.00                        
 INPUT CARD>C16   X73   1.236   X70     80.00            X71  -72.00                        
 INPUT CARD>C49   X73   1.236   X70     80.00            X71 -144.00                        
 INPUT CARD>C8    X74   1.236   X70     80.00            X71    0.00                        
    1000000 WORDS OF MEMORY AVAILABLE

     BASIS OPTIONS
     -------------
     GBASIS=AM1          IGAUSS=       0      POLAR=NONE    
     NDFUNC=       0     NFFUNC=       0     DIFFSP=       F
     NPFUNC=       0      DIFFS=       F     BASNAM=        


     RUN TITLE
     ---------
 AM1/Fullerene(C60) Optimization                                                 

 THE POINT GROUP OF THE MOLECULE IS CNH     
 THE ORDER OF THE PRINCIPAL AXIS IS     2

 YOUR FULLY SUBSTITUTED Z-MATRIX IS
 X70 
 X71    1   3.5000000
 X72    1   3.5000000  2  180.0000
 X73    1   3.5000000  2   63.4349  3    0.0000  0
 X77    1   3.5000000  2   63.4349  4   72.0000  0
 X76    1   3.5000000  2   63.4349  4  144.0000  0
 X75    1   3.5000000  2   63.4349  4 -144.0000  0
 X74    1   3.5000000  2   63.4349  4  -72.0000  0
 X78    1   3.5000000  2  116.5651  4   36.0000  0
 X79    1   3.5000000  2  116.5651  4  108.0000  0
 X80    1   3.5000000  2  116.5651  4  180.0000  0
 X82    1   3.5000000  2  116.5651  4 -108.0000  0
 X81    1   3.5000000  2  116.5651  4  -36.0000  0
 C2     2   1.2360000  1   80.0000  8    0.0000  0
 C9     2   1.2360000  1   80.0000  8   72.0000  0
 C18    2   1.2360000  1   80.0000  8  144.0000  0
 C13    2   1.2360000  1   80.0000  8  -72.0000  0
 C55    2   1.2360000  1   80.0000  8 -144.0000  0
 C10    3   1.2360000  1   80.0000 10    0.0000  0
 C34    3   1.2360000  1   80.0000 10   72.0000  0
 C44    3   1.2360000  1   80.0000 10  144.0000  0
 C6     3   1.2360000  1   80.0000 10  -72.0000  0
 C29    3   1.2360000  1   80.0000 10 -144.0000  0
 C3     7   1.2360000  1   80.0000  2    0.0000  0
 C7     7   1.2360000  1   80.0000  2   72.0000  0
 C22    7   1.2360000  1   80.0000  2  144.0000  0
 C17    7   1.2360000  1   80.0000  2  -72.0000  0
 C37    7   1.2360000  1   80.0000  2 -144.0000  0
 C20    6   1.2360000  1   80.0000  2    0.0000  0
 C19    6   1.2360000  1   80.0000  2   72.0000  0
 C38    6   1.2360000  1   80.0000  2  144.0000  0
 C57    6   1.2360000  1   80.0000  2  -72.0000  0
 C59    6   1.2360000  1   80.0000  2 -144.0000  0
 C56    5   1.2360000  1   80.0000  2    0.0000  0
 C58    5   1.2360000  1   80.0000  2   72.0000  0
 C28    5   1.2360000  1   80.0000  2  144.0000  0
 C54    5   1.2360000  1   80.0000  2  -72.0000  0
 C27    5   1.2360000  1   80.0000  2 -144.0000  0
 C15    4   1.2360000  1   80.0000  2    0.0000  0
 C53    4   1.2360000  1   80.0000  2   72.0000  0
 C51    4   1.2360000  1   80.0000  2  144.0000  0
 C16    4   1.2360000  1   80.0000  2  -72.0000  0
 C49    4   1.2360000  1   80.0000  2 -144.0000  0
 C8     8   1.2360000  1   80.0000  2    0.0000  0
 C14    8   1.2360000  1   80.0000  2   72.0000  0
 C47    8   1.2360000  1   80.0000  2  144.0000  0
 C1     8   1.2360000  1   80.0000  2  -72.0000  0
 C21    8   1.2360000  1   80.0000  2 -144.0000  0
 C12    9   1.2360000  1   80.0000  3    0.0000  0
 C30    9   1.2360000  1   80.0000  3   72.0000  0
 C52    9   1.2360000  1   80.0000  3  144.0000  0
 C5     9   1.2360000  1   80.0000  3  -72.0000  0
 C25    9   1.2360000  1   80.0000  3 -144.0000  0
 C4    10   1.2360000  1   80.0000  3    0.0000  0
 C11   10   1.2360000  1   80.0000  3   72.0000  0
 C26   10   1.2360000  1   80.0000  3  144.0000  0
 C33   10   1.2360000  1   80.0000  3  -72.0000  0
 C60   10   1.2360000  1   80.0000  3 -144.0000  0
 C36   11   1.2360000  1   80.0000  3    0.0000  0
 C35   11   1.2360000  1   80.0000  3   72.0000  0
 C40   11   1.2360000  1   80.0000  3  144.0000  0
 C42   11   1.2360000  1   80.0000  3  -72.0000  0
 C39   11   1.2360000  1   80.0000  3 -144.0000  0
 C43   12   1.2360000  1   80.0000  3    0.0000  0
 C41   12   1.2360000  1   80.0000  3   72.0000  0
 C24   12   1.2360000  1   80.0000  3  144.0000  0
 C45   12   1.2360000  1   80.0000  3  -72.0000  0
 C23   12   1.2360000  1   80.0000  3 -144.0000  0
 C31   13   1.2360000  1   80.0000  3    0.0000  0
 C46   13   1.2360000  1   80.0000  3   72.0000  0
 C48   13   1.2360000  1   80.0000  3  144.0000  0
 C32   13   1.2360000  1   80.0000  3  -72.0000  0
 C50   13   1.2360000  1   80.0000  3 -144.0000  0

 THE MOMENTS OF INERTIA ARE (AMU-ANGSTROM**2)
 IXX=  5892.140   IYY=  5892.140   IZZ=  5892.140

 ATOM      ATOMIC                      COORDINATES (BOHR)
           CHARGE         X                   Y                   Z
 C2          6.0    -0.7108060725       -6.2084506791        2.1876361475
 C2          6.0     0.7108060725        6.2084506791       -2.1876361475
 C2          6.0    -0.7108060725       -6.2084506791       -2.1876361475
 C2          6.0     0.7108060725        6.2084506791        2.1876361475
 C9          6.0     1.8609144572       -6.2084506791        1.3520334942
 C9          6.0    -1.8609144572        6.2084506791       -1.3520334942
 C9          6.0     1.8609144572       -6.2084506791       -1.3520334942
 C9          6.0    -1.8609144572        6.2084506791        1.3520334942
 C13         6.0    -2.3002167695       -6.2084506791        0.0000000000
 C13         6.0     2.3002167695        6.2084506791        0.0000000000
 C3          6.0     3.6602508695       -4.8338799745        2.6593279199
 C3          6.0    -3.6602508695        4.8338799745       -2.6593279199
 C3          6.0     3.6602508695       -4.8338799745       -2.6593279199
 C3          6.0    -3.6602508695        4.8338799745        2.6593279199
 C7          6.0     2.9494447970       -3.4122678295        4.8469640674
 C7          6.0    -2.9494447970        3.4122678295       -4.8469640674
 C7          6.0     2.9494447970       -3.4122678295       -4.8469640674
 C7          6.0    -2.9494447970        3.4122678295        4.8469640674
 C22         6.0     4.3710569421       -1.1120510600        4.8469640674
 C22         6.0    -4.3710569421        1.1120510600       -4.8469640674
 C22         6.0     4.3710569421       -1.1120510600       -4.8469640674
 C22         6.0    -4.3710569421        1.1120510600        4.8469640674
 C17         6.0     5.5211653268       -3.4122678295        1.3072944257
 C17         6.0    -5.5211653268        3.4122678295       -1.3072944257
 C17         6.0     5.5211653268       -3.4122678295       -1.3072944257
 C17         6.0    -5.5211653268        3.4122678295        1.3072944257
 C37         6.0     5.9604676390       -1.1120510600        2.6593279199
 C37         6.0    -5.9604676390        1.1120510600       -2.6593279199
 C37         6.0     5.9604676390       -1.1120510600       -2.6593279199
 C37         6.0    -5.9604676390        1.1120510600        2.6593279199
 C56         6.0    -1.3980914248       -4.8338799745       -4.3028829616
 C56         6.0     1.3980914248        4.8338799745        4.3028829616
 C56         6.0    -1.3980914248       -4.8338799745        4.3028829616
 C56         6.0     1.3980914248        4.8338799745       -4.3028829616
 C58         6.0     0.4628230324       -3.4122678295       -5.6549164558
 C58         6.0    -0.4628230324        3.4122678295        5.6549164558
 C58         6.0     0.4628230324       -3.4122678295        5.6549164558
 C58         6.0    -0.4628230324        3.4122678295       -5.6549164558
 C28         6.0    -0.6872853523       -1.1120510600       -6.4905191091
 C28         6.0     0.6872853523        1.1120510600        6.4905191091
 C28         6.0    -0.6872853523       -1.1120510600        6.4905191091
 C28         6.0     0.6872853523        1.1120510600       -6.4905191091
 C54         6.0    -3.6983081943       -3.4122678295       -4.3028829616
 C54         6.0     3.6983081943        3.4122678295        4.3028829616
 C54         6.0    -3.6983081943       -3.4122678295        4.3028829616
 C54         6.0     3.6983081943        3.4122678295       -4.3028829616
 C27         6.0    -3.2590058821       -1.1120510600       -5.6549164558
 C27         6.0     3.2590058821        1.1120510600        5.6549164558
 C27         6.0    -3.2590058821       -1.1120510600        5.6549164558
 C27         6.0     3.2590058821        1.1120510600       -5.6549164558
 C15         6.0    -4.5243188895       -4.8338799745        0.0000000000
 C15         6.0     4.5243188895        4.8338799745        0.0000000000
 C53         6.0    -5.2351249620       -3.4122678295       -2.1876361475
 C53         6.0     5.2351249620        3.4122678295        2.1876361475
 C53         6.0    -5.2351249620       -3.4122678295        2.1876361475
 C53         6.0     5.2351249620        3.4122678295       -2.1876361475
 C51         6.0    -6.3852333467       -1.1120510600       -1.3520334942
 C51         6.0     6.3852333467        1.1120510600        1.3520334942
 C51         6.0    -6.3852333467       -1.1120510600        1.3520334942
 C51         6.0     6.3852333467        1.1120510600       -1.3520334942

          INTERNUCLEAR DISTANCES (ANGS.)
          ------------------------------

                1 C2         2 C2         3 C2         4 C2         5 C9    

   1 C2      0.0000000    7.0072226    2.3152946 *  6.6136661    1.4309307 *
   2 C2      7.0072226    0.0000000    6.6136661    2.3152946 *  6.8595630  
   3 C2      2.3152946 *  6.6136661    0.0000000    7.0072226    2.3152946 *
   4 C2      6.6136661    2.3152946 *  7.0072226    0.0000000    6.6136661  
   5 C9      1.4309307 *  6.8595630    2.3152946 *  6.6136661    0.0000000  
   6 C9      6.8595630    1.4309307 *  6.6136661    2.3152946 *  7.0072226  
   7 C9      2.3152946 *  6.6136661    1.4309307 *  6.8595630    1.4309307 *
   8 C9      6.6136661    2.3152946 *  6.8595630    1.4309307 *  6.8595630  
   9 C13     1.4309307 *  6.8595630    1.4309307 *  6.8595630    2.3152946 *
  10 C13     6.8595630    1.4309307 *  6.8595630    1.4309307 *  6.6136661  
  11 C3      2.4375536 *  6.5695891    3.5296021    6.0533525    1.3835809 *
  12 C3      6.5695891    2.4375536 *  6.0533525    3.5296021    6.8692701  
  13 C3      3.5296021    6.0533525    2.4375536 *  6.5695891    2.4375536 *
  14 C3      6.0533525    3.5296021    6.5695891    2.4375536 *  6.5695891  
  15 C7      2.8145117 *  6.4171405    4.4495492    5.4131949    2.4375536 *
  16 C7      6.4171405    2.8145117 *  5.4131949    4.4495492    6.5695891  
  17 C7      4.4495492    5.4131949    2.8145117 *  6.4171405    3.6444567  
  18 C7      5.4131949    4.4495492    6.4171405    2.8145117 *  5.9849063  
  19 C22     4.0602293    5.7110162    5.3256431    4.5539755    3.5296021  
  20 C22     5.7110162    4.0602293    4.5539755    5.3256431    6.0533525  
  21 C22     5.3256431    4.5539755    4.0602293    5.7110162    4.4495492  
  22 C22     4.5539755    5.3256431    5.7110162    4.0602293    5.4131949  
  23 C17     3.6444567    5.9849063    4.0602293    5.7110162    2.4375536 *
  24 C17     5.9849063    3.6444567    5.7110162    4.0602293    6.5695891  
  25 C17     4.0602293    5.7110162    3.6444567    5.9849063    2.8145117 *
  26 C17     5.7110162    4.0602293    5.9849063    3.6444567    6.4171405  
  27 C37     4.4495492    5.4131949    5.1298062    4.7734952    3.5296021  
  28 C37     5.4131949    4.4495492    4.7734952    5.1298062    6.0533525  
  29 C37     5.1298062    4.7734952    4.4495492    5.4131949    4.0602293  
  30 C37     4.7734952    5.1298062    5.4131949    4.4495492    5.7110162  
  31 C56     3.5296021    6.0533525    1.3835809 *  6.8692701    3.5296021  
  32 C56     6.0533525    3.5296021    6.8692701    1.3835809 *  6.0533525  
  33 C56     1.3835809 *  6.8692701    3.5296021    6.0533525    2.4375536 *
  34 C56     6.8692701    1.3835809 *  6.0533525    3.5296021    6.5695891  
  35 C58     4.4495492    5.4131949    2.4375536 *  6.5695891    4.0602293  
  36 C58     5.4131949    4.4495492    6.5695891    2.4375536 *  5.7110162  
  37 C58     2.4375536 *  6.5695891    4.4495492    5.4131949    2.8145117 *
  38 C58     6.5695891    2.4375536 *  5.4131949    4.4495492    6.4171405  
  39 C28     5.3256431    4.5539755    3.5296021    6.0533525    5.1298062  
  40 C28     4.5539755    5.3256431    6.0533525    3.5296021    4.7734952  
  41 C28     3.5296021    6.0533525    5.3256431    4.5539755    4.0602293  
  42 C28     6.0533525    3.5296021    4.5539755    5.3256431    5.7110162  
  43 C54     4.0602293    5.7110162    2.4375536 *  6.5695891    4.4495492  
  44 C54     5.7110162    4.0602293    6.5695891    2.4375536 *  5.4131949  
  45 C54     2.4375536 *  6.5695891    4.0602293    5.7110162    3.6444567  
  46 C54     6.5695891    2.4375536 *  5.7110162    4.0602293    5.9849063  
  47 C27     5.1298062    4.7734952    3.5296021    6.0533525    5.3256431  
  48 C27     4.7734952    5.1298062    6.0533525    3.5296021    4.5539755  
  49 C27     3.5296021    6.0533525    5.1298062    4.7734952    4.4495492  
  50 C27     6.0533525    3.5296021    4.7734952    5.1298062    5.4131949  
  51 C15     2.4375536 *  6.5695891    2.4375536 *  6.5695891    3.5296021  
  52 C15     6.5695891    2.4375536 *  6.5695891    2.4375536 *  6.0533525  
  53 C53     3.6444567    5.9849063    2.8145117 *  6.4171405    4.4495492  
  54 C53     5.9849063    3.6444567    6.4171405    2.8145117 *  5.4131949  
  55 C53     2.8145117 *  6.4171405    3.6444567    5.9849063    4.0602293  
  56 C53     6.4171405    2.8145117 *  5.9849063    3.6444567    5.7110162  
  57 C51     4.4495492    5.4131949    4.0602293    5.7110162    5.3256431  
  58 C51     5.4131949    4.4495492    5.7110162    4.0602293    4.5539755  
  59 C51     4.0602293    5.7110162    4.4495492    5.4131949    5.1298062  
  60 C51     5.7110162    4.0602293    5.4131949    4.4495492    4.7734952  

                6 C9         7 C9         8 C9         9 C13       10 C13   

   1 C2      6.8595630    2.3152946 *  6.6136661    1.4309307 *  6.8595630  
   2 C2      1.4309307 *  6.6136661    2.3152946 *  6.8595630    1.4309307 *
   3 C2      6.6136661    1.4309307 *  6.8595630    1.4309307 *  6.8595630  
   4 C2      2.3152946 *  6.8595630    1.4309307 *  6.8595630    1.4309307 *
   5 C9      7.0072226    1.4309307 *  6.8595630    2.3152946 *  6.6136661  
   6 C9      0.0000000    6.8595630    1.4309307 *  6.6136661    2.3152946 *
   7 C9      6.8595630    0.0000000    7.0072226    2.3152946 *  6.6136661  
   8 C9      1.4309307 *  7.0072226    0.0000000    6.6136661    2.3152946 *
   9 C13     6.6136661    2.3152946 *  6.6136661    0.0000000    7.0072226  
  10 C13     2.3152946 *  6.6136661    2.3152946 *  7.0072226    0.0000000  
  11 C3      6.8692701    2.4375536 *  6.5695891    3.5296021    6.0533525  
  12 C3      1.3835809 *  6.5695891    2.4375536 *  6.0533525    3.5296021  
  13 C3      6.5695891    1.3835809 *  6.8692701    3.5296021    6.0533525  
  14 C3      2.4375536 *  6.8692701    1.3835809 *  6.0533525    3.5296021  
  15 C7      6.5695891    3.6444567    5.9849063    4.0602293    5.7110162  
  16 C7      2.4375536 *  5.9849063    3.6444567    5.7110162    4.0602293  
  17 C7      5.9849063    2.4375536 *  6.5695891    4.0602293    5.7110162  
  18 C7      3.6444567    6.5695891    2.4375536 *  5.7110162    4.0602293  
  19 C22     6.0533525    4.4495492    5.4131949    5.1298062    4.7734952  
  20 C22     3.5296021    5.4131949    4.4495492    4.7734952    5.1298062  
  21 C22     5.4131949    3.5296021    6.0533525    5.1298062    4.7734952  
  22 C22     4.4495492    6.0533525    3.5296021    4.7734952    5.1298062  
  23 C17     6.5695891    2.8145117 *  6.4171405    4.4495492    5.4131949  
  24 C17     2.4375536 *  6.4171405    2.8145117 *  5.4131949    4.4495492  
  25 C17     6.4171405    2.4375536 *  6.5695891    4.4495492    5.4131949  
  26 C17     2.8145117 *  6.5695891    2.4375536 *  5.4131949    4.4495492  
  27 C37     6.0533525    4.0602293    5.7110162    5.3256431    4.5539755  
  28 C37     3.5296021    5.7110162    4.0602293    4.5539755    5.3256431  
  29 C37     5.7110162    3.5296021    6.0533525    5.3256431    4.5539755  
  30 C37     4.0602293    6.0533525    3.5296021    4.5539755    5.3256431  
  31 C56     6.0533525    2.4375536 *  6.5695891    2.4375536 *  6.5695891  
  32 C56     3.5296021    6.5695891    2.4375536 *  6.5695891    2.4375536 *
  33 C56     6.5695891    3.5296021    6.0533525    2.4375536 *  6.5695891  
  34 C56     2.4375536 *  6.0533525    3.5296021    6.5695891    2.4375536 *
  35 C58     5.7110162    2.8145117 *  6.4171405    3.6444567    5.9849063  
  36 C58     4.0602293    6.4171405    2.8145117 *  5.9849063    3.6444567  
  37 C58     6.4171405    4.0602293    5.7110162    3.6444567    5.9849063  
  38 C58     2.8145117 *  5.7110162    4.0602293    5.9849063    3.6444567  
  39 C28     4.7734952    4.0602293    5.7110162    4.4495492    5.4131949  
  40 C28     5.1298062    5.7110162    4.0602293    5.4131949    4.4495492  
  41 C28     5.7110162    5.1298062    4.7734952    4.4495492    5.4131949  
  42 C28     4.0602293    4.7734952    5.1298062    5.4131949    4.4495492  
  43 C54     5.4131949    3.6444567    5.9849063    2.8145117 *  6.4171405  
  44 C54     4.4495492    5.9849063    3.6444567    6.4171405    2.8145117 *
  45 C54     5.9849063    4.4495492    5.4131949    2.8145117 *  6.4171405  
  46 C54     3.6444567    5.4131949    4.4495492    6.4171405    2.8145117 *
  47 C27     4.5539755    4.4495492    5.4131949    4.0602293    5.7110162  
  48 C27     5.3256431    5.4131949    4.4495492    5.7110162    4.0602293  
  49 C27     5.4131949    5.3256431    4.5539755    4.0602293    5.7110162  
  50 C27     4.4495492    4.5539755    5.3256431    5.7110162    4.0602293  
  51 C15     6.0533525    3.5296021    6.0533525    1.3835809 *  6.8692701  
  52 C15     3.5296021    6.0533525    3.5296021    6.8692701    1.3835809 *
  53 C53     5.4131949    4.0602293    5.7110162    2.4375536 *  6.5695891  
  54 C53     4.4495492    5.7110162    4.0602293    6.5695891    2.4375536 *
  55 C53     5.7110162    4.4495492    5.4131949    2.4375536 *  6.5695891  
  56 C53     4.0602293    5.4131949    4.4495492    6.5695891    2.4375536 *
  57 C51     4.5539755    5.1298062    4.7734952    3.5296021    6.0533525  
  58 C51     5.3256431    4.7734952    5.1298062    6.0533525    3.5296021  
  59 C51     4.7734952    5.3256431    4.5539755    3.5296021    6.0533525  
  60 C51     5.1298062    4.5539755    5.3256431    6.0533525    3.5296021  

               11 C3        12 C3        13 C3        14 C3        15 C7    

   1 C2      2.4375536 *  6.5695891    3.5296021    6.0533525    2.8145117 *
   2 C2      6.5695891    2.4375536 *  6.0533525    3.5296021    6.4171405  
   3 C2      3.5296021    6.0533525    2.4375536 *  6.5695891    4.4495492  
   4 C2      6.0533525    3.5296021    6.5695891    2.4375536 *  5.4131949  
   5 C9      1.3835809 *  6.8692701    2.4375536 *  6.5695891    2.4375536 *
   6 C9      6.8692701    1.3835809 *  6.5695891    2.4375536 *  6.5695891  
   7 C9      2.4375536 *  6.5695891    1.3835809 *  6.8692701    3.6444567  
   8 C9      6.5695891    2.4375536 *  6.8692701    1.3835809 *  5.9849063  
   9 C13     3.5296021    6.0533525    3.5296021    6.0533525    4.0602293  
  10 C13     6.0533525    3.5296021    6.0533525    3.5296021    5.7110162  
  11 C3      0.0000000    7.0072226    2.8145117 *  6.4171405    1.4309307 *
  12 C3      7.0072226    0.0000000    6.4171405    2.8145117 *  6.8595630  
  13 C3      2.8145117 *  6.4171405    0.0000000    7.0072226    4.0602293  
  14 C3      6.4171405    2.8145117 *  7.0072226    0.0000000    5.7110162  
  15 C7      1.4309307 *  6.8595630    4.0602293    5.7110162    0.0000000  
  16 C7      6.8595630    1.4309307 *  5.7110162    4.0602293    7.0072226  
  17 C7      4.0602293    5.7110162    1.4309307 *  6.8595630    5.1298062  
  18 C7      5.7110162    4.0602293    6.8595630    1.4309307 *  4.7734952  
  19 C22     2.3152946 *  6.6136661    4.4495492    5.4131949    1.4309307 *
  20 C22     6.6136661    2.3152946 *  5.4131949    4.4495492    6.8595630  
  21 C22     4.4495492    5.4131949    2.3152946 *  6.6136661    5.3256431  
  22 C22     5.4131949    4.4495492    6.6136661    2.3152946 *  4.5539755  
  23 C17     1.4309307 *  6.8595630    2.4375536 *  6.5695891    2.3152946 *
  24 C17     6.8595630    1.4309307 *  6.5695891    2.4375536 *  6.6136661  
  25 C17     2.4375536 *  6.5695891    1.4309307 *  6.8595630    3.5296021  
  26 C17     6.5695891    2.4375536 *  6.8595630    1.4309307 *  6.0533525  
  27 C37     2.3152946 *  6.6136661    3.6444567    5.9849063    2.3152946 *
  28 C37     6.6136661    2.3152946 *  5.9849063    3.6444567    6.6136661  
  29 C37     3.6444567    5.9849063    2.3152946 *  6.6136661    4.4495492  
  30 C37     5.9849063    3.6444567    6.6136661    2.3152946 *  5.4131949  
  31 C56     4.5539755    5.3256431    2.8145117 *  6.4171405    5.4131949  
  32 C56     5.3256431    4.5539755    6.4171405    2.8145117 *  4.4495492  
  33 C56     2.8145117 *  6.4171405    4.5539755    5.3256431    2.4375536 *
  34 C56     6.4171405    2.8145117 *  5.3256431    4.5539755    6.5695891  
  35 C58     4.7734952    5.1298062    2.4375536 *  6.5695891    5.7110162  
  36 C58     5.1298062    4.7734952    6.5695891    2.4375536 *  4.0602293  
  37 C58     2.4375536 *  6.5695891    4.7734952    5.1298062    1.3835809 *
  38 C58     6.5695891    2.4375536 *  5.1298062    4.7734952    6.8692701  
  39 C28     5.7110162    4.0602293    3.6444567    5.9849063    6.4171405  
  40 C28     4.0602293    5.7110162    5.9849063    3.6444567    2.8145117 *
  41 C28     3.6444567    5.9849063    5.7110162    4.0602293    2.4375536 *
  42 C28     5.9849063    3.6444567    4.0602293    5.7110162    6.5695891  
  43 C54     5.4131949    4.4495492    4.0602293    5.7110162    5.9849063  
  44 C54     4.4495492    5.4131949    5.7110162    4.0602293    3.6444567  
  45 C54     4.0602293    5.7110162    5.4131949    4.4495492    3.5296021  
  46 C54     5.7110162    4.0602293    4.4495492    5.4131949    6.0533525  
  47 C27     6.0533525    3.5296021    4.4495492    5.4131949    6.5695891  
  48 C27     3.5296021    6.0533525    5.4131949    4.4495492    2.4375536 *
  49 C27     4.4495492    5.4131949    6.0533525    3.5296021    3.5296021  
  50 C27     5.4131949    4.4495492    3.5296021    6.0533525    6.0533525  
  51 C15     4.5539755    5.3256431    4.5539755    5.3256431    4.7734952  
  52 C15     5.3256431    4.5539755    5.3256431    4.5539755    5.1298062  
  53 C53     5.4131949    4.4495492    4.7734952    5.1298062    5.7110162  
  54 C53     4.4495492    5.4131949    5.1298062    4.7734952    4.0602293  
  55 C53     4.7734952    5.1298062    5.4131949    4.4495492    4.5539755  
  56 C53     5.1298062    4.7734952    4.4495492    5.4131949    5.3256431  
  57 C51     6.0533525    3.5296021    5.7110162    4.0602293    6.0533525  
  58 C51     3.5296021    6.0533525    4.0602293    5.7110162    3.5296021  
  59 C51     5.7110162    4.0602293    6.0533525    3.5296021    5.4131949  
  60 C51     4.0602293    5.7110162    3.5296021    6.0533525    4.4495492  

               16 C7        17 C7        18 C7        19 C22       20 C22   

   1 C2      6.4171405    4.4495492    5.4131949    4.0602293    5.7110162  
   2 C2      2.8145117 *  5.4131949    4.4495492    5.7110162    4.0602293  
   3 C2      5.4131949    2.8145117 *  6.4171405    5.3256431    4.5539755  
   4 C2      4.4495492    6.4171405    2.8145117 *  4.5539755    5.3256431  
   5 C9      6.5695891    3.6444567    5.9849063    3.5296021    6.0533525  
   6 C9      2.4375536 *  5.9849063    3.6444567    6.0533525    3.5296021  
   7 C9      5.9849063    2.4375536 *  6.5695891    4.4495492    5.4131949  
   8 C9      3.6444567    6.5695891    2.4375536 *  5.4131949    4.4495492  
   9 C13     5.7110162    4.0602293    5.7110162    5.1298062    4.7734952  
  10 C13     4.0602293    5.7110162    4.0602293    4.7734952    5.1298062  
  11 C3      6.8595630    4.0602293    5.7110162    2.3152946 *  6.6136661  
  12 C3      1.4309307 *  5.7110162    4.0602293    6.6136661    2.3152946 *
  13 C3      5.7110162    1.4309307 *  6.8595630    4.4495492    5.4131949  
  14 C3      4.0602293    6.8595630    1.4309307 *  5.4131949    4.4495492  
  15 C7      7.0072226    5.1298062    4.7734952    1.4309307 *  6.8595630  
  16 C7      0.0000000    4.7734952    5.1298062    6.8595630    1.4309307 *
  17 C7      4.7734952    0.0000000    7.0072226    5.3256431    4.5539755  
  18 C7      5.1298062    7.0072226    0.0000000    4.5539755    5.3256431  
  19 C22     6.8595630    5.3256431    4.5539755    0.0000000    7.0072226  
  20 C22     1.4309307 *  4.5539755    5.3256431    7.0072226    0.0000000  
  21 C22     4.5539755    1.4309307 *  6.8595630    5.1298062    4.7734952  
  22 C22     5.3256431    6.8595630    1.4309307 *  4.7734952    5.1298062  
  23 C17     6.6136661    3.5296021    6.0533525    2.3152946 *  6.6136661  
  24 C17     2.3152946 *  6.0533525    3.5296021    6.6136661    2.3152946 *
  25 C17     6.0533525    2.3152946 *  6.6136661    3.5296021    6.0533525  
  26 C17     3.5296021    6.6136661    2.3152946 *  6.0533525    3.5296021  
  27 C37     6.6136661    4.4495492    5.4131949    1.4309307 *  6.8595630  
  28 C37     2.3152946 *  5.4131949    4.4495492    6.8595630    1.4309307 *
  29 C37     5.4131949    2.3152946 *  6.6136661    4.0602293    5.7110162  
  30 C37     4.4495492    6.6136661    2.3152946 *  5.7110162    4.0602293  
  31 C56     4.4495492    2.4375536 *  6.5695891    6.0533525    3.5296021  
  32 C56     5.4131949    6.5695891    2.4375536 *  3.5296021    6.0533525  
  33 C56     6.5695891    5.4131949    4.4495492    3.6444567    5.9849063  
  34 C56     2.4375536 *  4.4495492    5.4131949    5.9849063    3.6444567  
  35 C58     4.0602293    1.3835809 *  6.8692701    6.0533525    3.5296021  
  36 C58     5.7110162    6.8692701    1.3835809 *  3.5296021    6.0533525  
  37 C58     6.8692701    5.7110162    4.0602293    2.4375536 *  6.5695891  
  38 C58     1.3835809 *  4.0602293    5.7110162    6.5695891    2.4375536 *
  39 C28     2.8145117 *  2.4375536 *  6.5695891    6.5695891    2.4375536 *
  40 C28     6.4171405    6.5695891    2.4375536 *  2.4375536 *  6.5695891  
  41 C28     6.5695891    6.4171405    2.8145117 *  2.8145117 *  6.4171405  
  42 C28     2.4375536 *  2.8145117 *  6.4171405    6.4171405    2.8145117 *
  43 C54     3.6444567    3.5296021    6.0533525    6.5695891    2.4375536 *
  44 C54     5.9849063    6.0533525    3.5296021    2.4375536 *  6.5695891  
  45 C54     6.0533525    5.9849063    3.6444567    4.4495492    5.4131949  
  46 C54     3.5296021    3.6444567    5.9849063    5.4131949    4.4495492  
  47 C27     2.4375536 *  3.5296021    6.0533525    6.8692701    1.3835809 *
  48 C27     6.5695891    6.0533525    3.5296021    1.3835809 *  6.8692701  
  49 C27     6.0533525    6.5695891    2.4375536 *  4.0602293    5.7110162  
  50 C27     3.5296021    2.4375536 *  6.5695891    5.7110162    4.0602293  
  51 C15     5.1298062    4.7734952    5.1298062    5.7110162    4.0602293  
  52 C15     4.7734952    5.1298062    4.7734952    4.0602293    5.7110162  
  53 C53     4.0602293    4.5539755    5.3256431    6.4171405    2.8145117 *
  54 C53     5.7110162    5.3256431    4.5539755    2.8145117 *  6.4171405  
  55 C53     5.3256431    5.7110162    4.0602293    5.4131949    4.4495492  
  56 C53     4.5539755    4.0602293    5.7110162    4.4495492    5.4131949  
  57 C51     3.5296021    5.4131949    4.4495492    6.5695891    2.4375536 *
  58 C51     6.0533525    4.4495492    5.4131949    2.4375536 *  6.5695891  
  59 C51     4.4495492    6.0533525    3.5296021    5.9849063    3.6444567  
  60 C51     5.4131949    3.5296021    6.0533525    3.6444567    5.9849063  

               21 C22       22 C22       23 C17       24 C17       25 C17   

   1 C2      5.3256431    4.5539755    3.6444567    5.9849063    4.0602293  
   2 C2      4.5539755    5.3256431    5.9849063    3.6444567    5.7110162  
   3 C2      4.0602293    5.7110162    4.0602293    5.7110162    3.6444567  
   4 C2      5.7110162    4.0602293    5.7110162    4.0602293    5.9849063  
   5 C9      4.4495492    5.4131949    2.4375536 *  6.5695891    2.8145117 *
   6 C9      5.4131949    4.4495492    6.5695891    2.4375536 *  6.4171405  
   7 C9      3.5296021    6.0533525    2.8145117 *  6.4171405    2.4375536 *
   8 C9      6.0533525    3.5296021    6.4171405    2.8145117 *  6.5695891  
   9 C13     5.1298062    4.7734952    4.4495492    5.4131949    4.4495492  
  10 C13     4.7734952    5.1298062    5.4131949    4.4495492    5.4131949  
  11 C3      4.4495492    5.4131949    1.4309307 *  6.8595630    2.4375536 *
  12 C3      5.4131949    4.4495492    6.8595630    1.4309307 *  6.5695891  
  13 C3      2.3152946 *  6.6136661    2.4375536 *  6.5695891    1.4309307 *
  14 C3      6.6136661    2.3152946 *  6.5695891    2.4375536 *  6.8595630  
  15 C7      5.3256431    4.5539755    2.3152946 *  6.6136661    3.5296021  
  16 C7      4.5539755    5.3256431    6.6136661    2.3152946 *  6.0533525  
  17 C7      1.4309307 *  6.8595630    3.5296021    6.0533525    2.3152946 *
  18 C7      6.8595630    1.4309307 *  6.0533525    3.5296021    6.6136661  
  19 C22     5.1298062    4.7734952    2.3152946 *  6.6136661    3.5296021  
  20 C22     4.7734952    5.1298062    6.6136661    2.3152946 *  6.0533525  
  21 C22     0.0000000    7.0072226    3.5296021    6.0533525    2.3152946 *
  22 C22     7.0072226    0.0000000    6.0533525    3.5296021    6.6136661  
  23 C17     3.5296021    6.0533525    0.0000000    7.0072226    1.3835809 *
  24 C17     6.0533525    3.5296021    7.0072226    0.0000000    6.8692701  
  25 C17     2.3152946 *  6.6136661    1.3835809 *  6.8692701    0.0000000  
  26 C17     6.6136661    2.3152946 *  6.8692701    1.3835809 *  7.0072226  
  27 C37     4.0602293    5.7110162    1.4309307 *  6.8595630    2.4375536 *
  28 C37     5.7110162    4.0602293    6.8595630    1.4309307 *  6.5695891  
  29 C37     1.4309307 *  6.8595630    2.4375536 *  6.5695891    1.4309307 *
  30 C37     6.8595630    1.4309307 *  6.5695891    2.4375536 *  6.8595630  
  31 C56     3.6444567    5.9849063    4.7734952    5.1298062    4.0602293  
  32 C56     5.9849063    3.6444567    5.1298062    4.7734952    5.7110162  
  33 C56     6.0533525    3.5296021    4.0602293    5.7110162    4.7734952  
  34 C56     3.5296021    6.0533525    5.7110162    4.0602293    5.1298062  
  35 C58     2.4375536 *  6.5695891    4.5539755    5.3256431    3.5296021  
  36 C58     6.5695891    2.4375536 *  5.3256431    4.5539755    6.0533525  
  37 C58     6.0533525    3.5296021    3.5296021    6.0533525    4.5539755  
  38 C58     3.5296021    6.0533525    6.0533525    3.5296021    5.3256431  
  39 C28     2.8145117 *  6.4171405    5.4131949    4.4495492    4.4495492  
  40 C28     6.4171405    2.8145117 *  4.4495492    5.4131949    5.4131949  
  41 C28     6.5695891    2.4375536 *  4.4495492    5.4131949    5.4131949  
  42 C28     2.4375536 *  6.5695891    5.4131949    4.4495492    4.4495492  
  43 C54     4.4495492    5.4131949    5.7110162    4.0602293    5.1298062  
  44 C54     5.4131949    4.4495492    4.0602293    5.7110162    4.7734952  
  45 C54     6.5695891    2.4375536 *  5.1298062    4.7734952    5.7110162  
  46 C54     2.4375536 *  6.5695891    4.7734952    5.1298062    4.0602293  
  47 C27     4.0602293    5.7110162    6.0533525    3.5296021    5.3256431  
  48 C27     5.7110162    4.0602293    3.5296021    6.0533525    4.5539755  
  49 C27     6.8692701    1.3835809 *  5.3256431    4.5539755    6.0533525  
  50 C27     1.3835809 *  6.8692701    4.5539755    5.3256431    3.5296021  
  51 C15     5.7110162    4.0602293    5.4131949    4.4495492    5.4131949  
  52 C15     4.0602293    5.7110162    4.4495492    5.4131949    4.4495492  
  53 C53     5.4131949    4.4495492    5.9849063    3.6444567    5.7110162  
  54 C53     4.4495492    5.4131949    3.6444567    5.9849063    4.0602293  
  55 C53     6.4171405    2.8145117 *  5.7110162    4.0602293    5.9849063  
  56 C53     2.8145117 *  6.4171405    4.0602293    5.7110162    3.6444567  
  57 C51     5.9849063    3.6444567    6.5695891    2.4375536 *  6.4171405  
  58 C51     3.6444567    5.9849063    2.4375536 *  6.5695891    2.8145117 *
  59 C51     6.5695891    2.4375536 *  6.4171405    2.8145117 *  6.5695891  
  60 C51     2.4375536 *  6.5695891    2.8145117 *  6.4171405    2.4375536 *

               26 C17       27 C37       28 C37       29 C37       30 C37   

   1 C2      5.7110162    4.4495492    5.4131949    5.1298062    4.7734952  
   2 C2      4.0602293    5.4131949    4.4495492    4.7734952    5.1298062  
   3 C2      5.9849063    5.1298062    4.7734952    4.4495492    5.4131949  
   4 C2      3.6444567    4.7734952    5.1298062    5.4131949    4.4495492  
   5 C9      6.4171405    3.5296021    6.0533525    4.0602293    5.7110162  
   6 C9      2.8145117 *  6.0533525    3.5296021    5.7110162    4.0602293  
   7 C9      6.5695891    4.0602293    5.7110162    3.5296021    6.0533525  
   8 C9      2.4375536 *  5.7110162    4.0602293    6.0533525    3.5296021  
   9 C13     5.4131949    5.3256431    4.5539755    5.3256431    4.5539755  
  10 C13     4.4495492    4.5539755    5.3256431    4.5539755    5.3256431  
  11 C3      6.5695891    2.3152946 *  6.6136661    3.6444567    5.9849063  
  12 C3      2.4375536 *  6.6136661    2.3152946 *  5.9849063    3.6444567  
  13 C3      6.8595630    3.6444567    5.9849063    2.3152946 *  6.6136661  
  14 C3      1.4309307 *  5.9849063    3.6444567    6.6136661    2.3152946 *
  15 C7      6.0533525    2.3152946 *  6.6136661    4.4495492    5.4131949  
  16 C7      3.5296021    6.6136661    2.3152946 *  5.4131949    4.4495492  
  17 C7      6.6136661    4.4495492    5.4131949    2.3152946 *  6.6136661  
  18 C7      2.3152946 *  5.4131949    4.4495492    6.6136661    2.3152946 *
  19 C22     6.0533525    1.4309307 *  6.8595630    4.0602293    5.7110162  
  20 C22     3.5296021    6.8595630    1.4309307 *  5.7110162    4.0602293  
  21 C22     6.6136661    4.0602293    5.7110162    1.4309307 *  6.8595630  
  22 C22     2.3152946 *  5.7110162    4.0602293    6.8595630    1.4309307 *
  23 C17     6.8692701    1.4309307 *  6.8595630    2.4375536 *  6.5695891  
  24 C17     1.3835809 *  6.8595630    1.4309307 *  6.5695891    2.4375536 *
  25 C17     7.0072226    2.4375536 *  6.5695891    1.4309307 *  6.8595630  
  26 C17     0.0000000    6.5695891    2.4375536 *  6.8595630    1.4309307 *
  27 C37     6.5695891    0.0000000    7.0072226    2.8145117 *  6.4171405  
  28 C37     2.4375536 *  7.0072226    0.0000000    6.4171405    2.8145117 *
  29 C37     6.8595630    2.8145117 *  6.4171405    0.0000000    7.0072226  
  30 C37     1.4309307 *  6.4171405    2.8145117 *  7.0072226    0.0000000  
  31 C56     5.7110162    5.7110162    4.0602293    4.4495492    5.4131949  
  32 C56     4.0602293    4.0602293    5.7110162    5.4131949    4.4495492  
  33 C56     5.1298062    4.4495492    5.4131949    5.7110162    4.0602293  
  34 C56     4.7734952    5.4131949    4.4495492    4.0602293    5.7110162  
  35 C58     6.0533525    5.4131949    4.4495492    3.5296021    6.0533525  
  36 C58     3.5296021    4.4495492    5.4131949    6.0533525    3.5296021  
  37 C58     5.3256431    3.5296021    6.0533525    5.4131949    4.4495492  
  38 C58     4.5539755    6.0533525    3.5296021    4.4495492    5.4131949  
  39 C28     5.4131949    5.9849063    3.6444567    4.0602293    5.7110162  
  40 C28     4.4495492    3.6444567    5.9849063    5.7110162    4.0602293  
  41 C28     4.4495492    4.0602293    5.7110162    5.9849063    3.6444567  
  42 C28     5.4131949    5.7110162    4.0602293    3.6444567    5.9849063  
  43 C54     4.7734952    6.4171405    2.8145117 *  5.3256431    4.5539755  
  44 C54     5.1298062    2.8145117 *  6.4171405    4.5539755    5.3256431  
  45 C54     4.0602293    5.3256431    4.5539755    6.4171405    2.8145117 *
  46 C54     5.7110162    4.5539755    5.3256431    2.8145117 *  6.4171405  
  47 C27     4.5539755    6.5695891    2.4375536 *  5.1298062    4.7734952  
  48 C27     5.3256431    2.4375536 *  6.5695891    4.7734952    5.1298062  
  49 C27     3.5296021    5.1298062    4.7734952    6.5695891    2.4375536 *
  50 C27     6.0533525    4.7734952    5.1298062    2.4375536 *  6.5695891  
  51 C15     4.4495492    6.0533525    3.5296021    6.0533525    3.5296021  
  52 C15     5.4131949    3.5296021    6.0533525    3.5296021    6.0533525  
  53 C53     4.0602293    6.5695891    2.4375536 *  6.0533525    3.5296021  
  54 C53     5.7110162    2.4375536 *  6.5695891    3.5296021    6.0533525  
  55 C53     3.6444567    6.0533525    3.5296021    6.5695891    2.4375536 *
  56 C53     5.9849063    3.5296021    6.0533525    2.4375536 *  6.5695891  
  57 C51     2.8145117 *  6.8692701    1.3835809 *  6.5695891    2.4375536 *
  58 C51     6.4171405    1.3835809 *  6.8692701    2.4375536 *  6.5695891  
  59 C51     2.4375536 *  6.5695891    2.4375536 *  6.8692701    1.3835809 *
  60 C51     6.5695891    2.4375536 *  6.5695891    1.3835809 *  6.8692701  

               31 C56       32 C56       33 C56       34 C56       35 C58   

   1 C2      3.5296021    6.0533525    1.3835809 *  6.8692701    4.4495492  
   2 C2      6.0533525    3.5296021    6.8692701    1.3835809 *  5.4131949  
   3 C2      1.3835809 *  6.8692701    3.5296021    6.0533525    2.4375536 *
   4 C2      6.8692701    1.3835809 *  6.0533525    3.5296021    6.5695891  
   5 C9      3.5296021    6.0533525    2.4375536 *  6.5695891    4.0602293  
   6 C9      6.0533525    3.5296021    6.5695891    2.4375536 *  5.7110162  
   7 C9      2.4375536 *  6.5695891    3.5296021    6.0533525    2.8145117 *
   8 C9      6.5695891    2.4375536 *  6.0533525    3.5296021    6.4171405  
   9 C13     2.4375536 *  6.5695891    2.4375536 *  6.5695891    3.6444567  
  10 C13     6.5695891    2.4375536 *  6.5695891    2.4375536 *  5.9849063  
  11 C3      4.5539755    5.3256431    2.8145117 *  6.4171405    4.7734952  
  12 C3      5.3256431    4.5539755    6.4171405    2.8145117 *  5.1298062  
  13 C3      2.8145117 *  6.4171405    4.5539755    5.3256431    2.4375536 *
  14 C3      6.4171405    2.8145117 *  5.3256431    4.5539755    6.5695891  
  15 C7      5.4131949    4.4495492    2.4375536 *  6.5695891    5.7110162  
  16 C7      4.4495492    5.4131949    6.5695891    2.4375536 *  4.0602293  
  17 C7      2.4375536 *  6.5695891    5.4131949    4.4495492    1.3835809 *
  18 C7      6.5695891    2.4375536 *  4.4495492    5.4131949    6.8692701  
  19 C22     6.0533525    3.5296021    3.6444567    5.9849063    6.0533525  
  20 C22     3.5296021    6.0533525    5.9849063    3.6444567    3.5296021  
  21 C22     3.6444567    5.9849063    6.0533525    3.5296021    2.4375536 *
  22 C22     5.9849063    3.6444567    3.5296021    6.0533525    6.5695891  
  23 C17     4.7734952    5.1298062    4.0602293    5.7110162    4.5539755  
  24 C17     5.1298062    4.7734952    5.7110162    4.0602293    5.3256431  
  25 C17     4.0602293    5.7110162    4.7734952    5.1298062    3.5296021  
  26 C17     5.7110162    4.0602293    5.1298062    4.7734952    6.0533525  
  27 C37     5.7110162    4.0602293    4.4495492    5.4131949    5.4131949  
  28 C37     4.0602293    5.7110162    5.4131949    4.4495492    4.4495492  
  29 C37     4.4495492    5.4131949    5.7110162    4.0602293    3.5296021  
  30 C37     5.4131949    4.4495492    4.0602293    5.7110162    6.0533525  
  31 C56     0.0000000    7.0072226    4.5539755    5.3256431    1.4309307 *
  32 C56     7.0072226    0.0000000    5.3256431    4.5539755    6.8595630  
  33 C56     4.5539755    5.3256431    0.0000000    7.0072226    5.4131949  
  34 C56     5.3256431    4.5539755    7.0072226    0.0000000    4.4495492  
  35 C58     1.4309307 *  6.8595630    5.4131949    4.4495492    0.0000000  
  36 C58     6.8595630    1.4309307 *  4.4495492    5.4131949    7.0072226  
  37 C58     5.4131949    4.4495492    1.4309307 *  6.8595630    5.9849063  
  38 C58     4.4495492    5.4131949    6.8595630    1.4309307 *  3.6444567  
  39 C28     2.3152946 *  6.6136661    6.0533525    3.5296021    1.4309307 *
  40 C28     6.6136661    2.3152946 *  3.5296021    6.0533525    6.8595630  
  41 C28     6.0533525    3.5296021    2.3152946 *  6.6136661    6.5695891  
  42 C28     3.5296021    6.0533525    6.6136661    2.3152946 *  2.4375536 *
  43 C54     1.4309307 *  6.8595630    4.7734952    5.1298062    2.3152946 *
  44 C54     6.8595630    1.4309307 *  5.1298062    4.7734952    6.6136661  
  45 C54     4.7734952    5.1298062    1.4309307 *  6.8595630    5.7110162  
  46 C54     5.1298062    4.7734952    6.8595630    1.4309307 *  4.0602293  
  47 C27     2.3152946 *  6.6136661    5.7110162    4.0602293    2.3152946 *
  48 C27     6.6136661    2.3152946 *  4.0602293    5.7110162    6.6136661  
  49 C27     5.7110162    4.0602293    2.3152946 *  6.6136661    6.4171405  
  50 C27     4.0602293    5.7110162    6.6136661    2.3152946 *  2.8145117 *
  51 C15     2.8145117 *  6.4171405    2.8145117 *  6.4171405    4.0602293  
  52 C15     6.4171405    2.8145117 *  6.4171405    2.8145117 *  5.7110162  
  53 C53     2.4375536 *  6.5695891    4.0602293    5.7110162    3.5296021  
  54 C53     6.5695891    2.4375536 *  5.7110162    4.0602293    6.0533525  
  55 C53     4.0602293    5.7110162    2.4375536 *  6.5695891    5.1298062  
  56 C53     5.7110162    4.0602293    6.5695891    2.4375536 *  4.7734952  
  57 C51     3.6444567    5.9849063    4.4495492    5.4131949    4.4495492  
  58 C51     5.9849063    3.6444567    5.4131949    4.4495492    5.4131949  
  59 C51     4.4495492    5.4131949    3.6444567    5.9849063    5.3256431  
  60 C51     5.4131949    4.4495492    5.9849063    3.6444567    4.5539755  

               36 C58       37 C58       38 C58       39 C28       40 C28   

   1 C2      5.4131949    2.4375536 *  6.5695891    5.3256431    4.5539755  
   2 C2      4.4495492    6.5695891    2.4375536 *  4.5539755    5.3256431  
   3 C2      6.5695891    4.4495492    5.4131949    3.5296021    6.0533525  
   4 C2      2.4375536 *  5.4131949    4.4495492    6.0533525    3.5296021  
   5 C9      5.7110162    2.8145117 *  6.4171405    5.1298062    4.7734952  
   6 C9      4.0602293    6.4171405    2.8145117 *  4.7734952    5.1298062  
   7 C9      6.4171405    4.0602293    5.7110162    4.0602293    5.7110162  
   8 C9      2.8145117 *  5.7110162    4.0602293    5.7110162    4.0602293  
   9 C13     5.9849063    3.6444567    5.9849063    4.4495492    5.4131949  
  10 C13     3.6444567    5.9849063    3.6444567    5.4131949    4.4495492  
  11 C3      5.1298062    2.4375536 *  6.5695891    5.7110162    4.0602293  
  12 C3      4.7734952    6.5695891    2.4375536 *  4.0602293    5.7110162  
  13 C3      6.5695891    4.7734952    5.1298062    3.6444567    5.9849063  
  14 C3      2.4375536 *  5.1298062    4.7734952    5.9849063    3.6444567  
  15 C7      4.0602293    1.3835809 *  6.8692701    6.4171405    2.8145117 *
  16 C7      5.7110162    6.8692701    1.3835809 *  2.8145117 *  6.4171405  
  17 C7      6.8692701    5.7110162    4.0602293    2.4375536 *  6.5695891  
  18 C7      1.3835809 *  4.0602293    5.7110162    6.5695891    2.4375536 *
  19 C22     3.5296021    2.4375536 *  6.5695891    6.5695891    2.4375536 *
  20 C22     6.0533525    6.5695891    2.4375536 *  2.4375536 *  6.5695891  
  21 C22     6.5695891    6.0533525    3.5296021    2.8145117 *  6.4171405  
  22 C22     2.4375536 *  3.5296021    6.0533525    6.4171405    2.8145117 *
  23 C17     5.3256431    3.5296021    6.0533525    5.4131949    4.4495492  
  24 C17     4.5539755    6.0533525    3.5296021    4.4495492    5.4131949  
  25 C17     6.0533525    4.5539755    5.3256431    4.4495492    5.4131949  
  26 C17     3.5296021    5.3256431    4.5539755    5.4131949    4.4495492  
  27 C37     4.4495492    3.5296021    6.0533525    5.9849063    3.6444567  
  28 C37     5.4131949    6.0533525    3.5296021    3.6444567    5.9849063  
  29 C37     6.0533525    5.4131949    4.4495492    4.0602293    5.7110162  
  30 C37     3.5296021    4.4495492    5.4131949    5.7110162    4.0602293  
  31 C56     6.8595630    5.4131949    4.4495492    2.3152946 *  6.6136661  
  32 C56     1.4309307 *  4.4495492    5.4131949    6.6136661    2.3152946 *
  33 C56     4.4495492    1.4309307 *  6.8595630    6.0533525    3.5296021  
  34 C56     5.4131949    6.8595630    1.4309307 *  3.5296021    6.0533525  
  35 C58     7.0072226    5.9849063    3.6444567    1.4309307 *  6.8595630  
  36 C58     0.0000000    3.6444567    5.9849063    6.8595630    1.4309307 *
  37 C58     3.6444567    0.0000000    7.0072226    6.5695891    2.4375536 *
  38 C58     5.9849063    7.0072226    0.0000000    2.4375536 *  6.5695891  
  39 C28     6.8595630    6.5695891    2.4375536 *  0.0000000    7.0072226  
  40 C28     1.4309307 *  2.4375536 *  6.5695891    7.0072226    0.0000000  
  41 C28     2.4375536 *  1.4309307 *  6.8595630    6.8692701    1.3835809 *
  42 C28     6.5695891    6.8595630    1.4309307 *  1.3835809 *  6.8692701  
  43 C54     6.6136661    5.7110162    4.0602293    2.3152946 *  6.6136661  
  44 C54     2.3152946 *  4.0602293    5.7110162    6.6136661    2.3152946 *
  45 C54     4.0602293    2.3152946 *  6.6136661    6.0533525    3.5296021  
  46 C54     5.7110162    6.6136661    2.3152946 *  3.5296021    6.0533525  
  47 C27     6.6136661    6.4171405    2.8145117 *  1.4309307 *  6.8595630  
  48 C27     2.3152946 *  2.8145117 *  6.4171405    6.8595630    1.4309307 *
  49 C27     2.8145117 *  2.3152946 *  6.6136661    6.5695891    2.4375536 *
  50 C27     6.4171405    6.6136661    2.3152946 *  2.4375536 *  6.5695891  
  51 C15     5.7110162    4.0602293    5.7110162    4.4495492    5.4131949  
  52 C15     4.0602293    5.7110162    4.0602293    5.4131949    4.4495492  
  53 C53     6.0533525    5.1298062    4.7734952    3.5296021    6.0533525  
  54 C53     3.5296021    4.7734952    5.1298062    6.0533525    3.5296021  
  55 C53     4.7734952    3.5296021    6.0533525    5.3256431    4.5539755  
  56 C53     5.1298062    6.0533525    3.5296021    4.5539755    5.3256431  
  57 C51     5.4131949    5.3256431    4.5539755    4.0602293    5.7110162  
  58 C51     4.4495492    4.5539755    5.3256431    5.7110162    4.0602293  
  59 C51     4.5539755    4.4495492    5.4131949    5.1298062    4.7734952  
  60 C51     5.3256431    5.4131949    4.4495492    4.7734952    5.1298062  

               41 C28       42 C28       43 C54       44 C54       45 C54   

   1 C2      3.5296021    6.0533525    4.0602293    5.7110162    2.4375536 *
   2 C2      6.0533525    3.5296021    5.7110162    4.0602293    6.5695891  
   3 C2      5.3256431    4.5539755    2.4375536 *  6.5695891    4.0602293  
   4 C2      4.5539755    5.3256431    6.5695891    2.4375536 *  5.7110162  
   5 C9      4.0602293    5.7110162    4.4495492    5.4131949    3.6444567  
   6 C9      5.7110162    4.0602293    5.4131949    4.4495492    5.9849063  
   7 C9      5.1298062    4.7734952    3.6444567    5.9849063    4.4495492  
   8 C9      4.7734952    5.1298062    5.9849063    3.6444567    5.4131949  
   9 C13     4.4495492    5.4131949    2.8145117 *  6.4171405    2.8145117 *
  10 C13     5.4131949    4.4495492    6.4171405    2.8145117 *  6.4171405  
  11 C3      3.6444567    5.9849063    5.4131949    4.4495492    4.0602293  
  12 C3      5.9849063    3.6444567    4.4495492    5.4131949    5.7110162  
  13 C3      5.7110162    4.0602293    4.0602293    5.7110162    5.4131949  
  14 C3      4.0602293    5.7110162    5.7110162    4.0602293    4.4495492  
  15 C7      2.4375536 *  6.5695891    5.9849063    3.6444567    3.5296021  
  16 C7      6.5695891    2.4375536 *  3.6444567    5.9849063    6.0533525  
  17 C7      6.4171405    2.8145117 *  3.5296021    6.0533525    5.9849063  
  18 C7      2.8145117 *  6.4171405    6.0533525    3.5296021    3.6444567  
  19 C22     2.8145117 *  6.4171405    6.5695891    2.4375536 *  4.4495492  
  20 C22     6.4171405    2.8145117 *  2.4375536 *  6.5695891    5.4131949  
  21 C22     6.5695891    2.4375536 *  4.4495492    5.4131949    6.5695891  
  22 C22     2.4375536 *  6.5695891    5.4131949    4.4495492    2.4375536 *
  23 C17     4.4495492    5.4131949    5.7110162    4.0602293    5.1298062  
  24 C17     5.4131949    4.4495492    4.0602293    5.7110162    4.7734952  
  25 C17     5.4131949    4.4495492    5.1298062    4.7734952    5.7110162  
  26 C17     4.4495492    5.4131949    4.7734952    5.1298062    4.0602293  
  27 C37     4.0602293    5.7110162    6.4171405    2.8145117 *  5.3256431  
  28 C37     5.7110162    4.0602293    2.8145117 *  6.4171405    4.5539755  
  29 C37     5.9849063    3.6444567    5.3256431    4.5539755    6.4171405  
  30 C37     3.6444567    5.9849063    4.5539755    5.3256431    2.8145117 *
  31 C56     6.0533525    3.5296021    1.4309307 *  6.8595630    4.7734952  
  32 C56     3.5296021    6.0533525    6.8595630    1.4309307 *  5.1298062  
  33 C56     2.3152946 *  6.6136661    4.7734952    5.1298062    1.4309307 *
  34 C56     6.6136661    2.3152946 *  5.1298062    4.7734952    6.8595630  
  35 C58     6.5695891    2.4375536 *  2.3152946 *  6.6136661    5.7110162  
  36 C58     2.4375536 *  6.5695891    6.6136661    2.3152946 *  4.0602293  
  37 C58     1.4309307 *  6.8595630    5.7110162    4.0602293    2.3152946 *
  38 C58     6.8595630    1.4309307 *  4.0602293    5.7110162    6.6136661  
  39 C28     6.8692701    1.3835809 *  2.3152946 *  6.6136661    6.0533525  
  40 C28     1.3835809 *  6.8692701    6.6136661    2.3152946 *  3.5296021  
  41 C28     0.0000000    7.0072226    6.0533525    3.5296021    2.3152946 *
  42 C28     7.0072226    0.0000000    3.5296021    6.0533525    6.6136661  
  43 C54     6.0533525    3.5296021    0.0000000    7.0072226    4.5539755  
  44 C54     3.5296021    6.0533525    7.0072226    0.0000000    5.3256431  
  45 C54     2.3152946 *  6.6136661    4.5539755    5.3256431    0.0000000  
  46 C54     6.6136661    2.3152946 *  5.3256431    4.5539755    7.0072226  
  47 C27     6.5695891    2.4375536 *  1.4309307 *  6.8595630    5.4131949  
  48 C27     2.4375536 *  6.5695891    6.8595630    1.4309307 *  4.4495492  
  49 C27     1.4309307 *  6.8595630    5.4131949    4.4495492    1.4309307 *
  50 C27     6.8595630    1.4309307 *  4.4495492    5.4131949    6.8595630  
  51 C15     4.4495492    5.4131949    2.4375536 *  6.5695891    2.4375536 *
  52 C15     5.4131949    4.4495492    6.5695891    2.4375536 *  6.5695891  
  53 C53     5.3256431    4.5539755    1.3835809 *  6.8692701    3.5296021  
  54 C53     4.5539755    5.3256431    6.8692701    1.3835809 *  6.0533525  
  55 C53     3.5296021    6.0533525    3.5296021    6.0533525    1.3835809 *
  56 C53     6.0533525    3.5296021    6.0533525    3.5296021    6.8692701  
  57 C51     5.1298062    4.7734952    2.4375536 *  6.5695891    3.5296021  
  58 C51     4.7734952    5.1298062    6.5695891    2.4375536 *  6.0533525  
  59 C51     4.0602293    5.7110162    3.5296021    6.0533525    2.4375536 *
  60 C51     5.7110162    4.0602293    6.0533525    3.5296021    6.5695891  

               46 C54       47 C27       48 C27       49 C27       50 C27   

   1 C2      6.5695891    5.1298062    4.7734952    3.5296021    6.0533525  
   2 C2      2.4375536 *  4.7734952    5.1298062    6.0533525    3.5296021  
   3 C2      5.7110162    3.5296021    6.0533525    5.1298062    4.7734952  
   4 C2      4.0602293    6.0533525    3.5296021    4.7734952    5.1298062  
   5 C9      5.9849063    5.3256431    4.5539755    4.4495492    5.4131949  
   6 C9      3.6444567    4.5539755    5.3256431    5.4131949    4.4495492  
   7 C9      5.4131949    4.4495492    5.4131949    5.3256431    4.5539755  
   8 C9      4.4495492    5.4131949    4.4495492    4.5539755    5.3256431  
   9 C13     6.4171405    4.0602293    5.7110162    4.0602293    5.7110162  
  10 C13     2.8145117 *  5.7110162    4.0602293    5.7110162    4.0602293  
  11 C3      5.7110162    6.0533525    3.5296021    4.4495492    5.4131949  
  12 C3      4.0602293    3.5296021    6.0533525    5.4131949    4.4495492  
  13 C3      4.4495492    4.4495492    5.4131949    6.0533525    3.5296021  
  14 C3      5.4131949    5.4131949    4.4495492    3.5296021    6.0533525  
  15 C7      6.0533525    6.5695891    2.4375536 *  3.5296021    6.0533525  
  16 C7      3.5296021    2.4375536 *  6.5695891    6.0533525    3.5296021  
  17 C7      3.6444567    3.5296021    6.0533525    6.5695891    2.4375536 *
  18 C7      5.9849063    6.0533525    3.5296021    2.4375536 *  6.5695891  
  19 C22     5.4131949    6.8692701    1.3835809 *  4.0602293    5.7110162  
  20 C22     4.4495492    1.3835809 *  6.8692701    5.7110162    4.0602293  
  21 C22     2.4375536 *  4.0602293    5.7110162    6.8692701    1.3835809 *
  22 C22     6.5695891    5.7110162    4.0602293    1.3835809 *  6.8692701  
  23 C17     4.7734952    6.0533525    3.5296021    5.3256431    4.5539755  
  24 C17     5.1298062    3.5296021    6.0533525    4.5539755    5.3256431  
  25 C17     4.0602293    5.3256431    4.5539755    6.0533525    3.5296021  
  26 C17     5.7110162    4.5539755    5.3256431    3.5296021    6.0533525  
  27 C37     4.5539755    6.5695891    2.4375536 *  5.1298062    4.7734952  
  28 C37     5.3256431    2.4375536 *  6.5695891    4.7734952    5.1298062  
  29 C37     2.8145117 *  5.1298062    4.7734952    6.5695891    2.4375536 *
  30 C37     6.4171405    4.7734952    5.1298062    2.4375536 *  6.5695891  
  31 C56     5.1298062    2.3152946 *  6.6136661    5.7110162    4.0602293  
  32 C56     4.7734952    6.6136661    2.3152946 *  4.0602293    5.7110162  
  33 C56     6.8595630    5.7110162    4.0602293    2.3152946 *  6.6136661  
  34 C56     1.4309307 *  4.0602293    5.7110162    6.6136661    2.3152946 *
  35 C58     4.0602293    2.3152946 *  6.6136661    6.4171405    2.8145117 *
  36 C58     5.7110162    6.6136661    2.3152946 *  2.8145117 *  6.4171405  
  37 C58     6.6136661    6.4171405    2.8145117 *  2.3152946 *  6.6136661  
  38 C58     2.3152946 *  2.8145117 *  6.4171405    6.6136661    2.3152946 *
  39 C28     3.5296021    1.4309307 *  6.8595630    6.5695891    2.4375536 *
  40 C28     6.0533525    6.8595630    1.4309307 *  2.4375536 *  6.5695891  
  41 C28     6.6136661    6.5695891    2.4375536 *  1.4309307 *  6.8595630  
  42 C28     2.3152946 *  2.4375536 *  6.5695891    6.8595630    1.4309307 *
  43 C54     5.3256431    1.4309307 *  6.8595630    5.4131949    4.4495492  
  44 C54     4.5539755    6.8595630    1.4309307 *  4.4495492    5.4131949  
  45 C54     7.0072226    5.4131949    4.4495492    1.4309307 *  6.8595630  
  46 C54     0.0000000    4.4495492    5.4131949    6.8595630    1.4309307 *
  47 C27     4.4495492    0.0000000    7.0072226    5.9849063    3.6444567  
  48 C27     5.4131949    7.0072226    0.0000000    3.6444567    5.9849063  
  49 C27     6.8595630    5.9849063    3.6444567    0.0000000    7.0072226  
  50 C27     1.4309307 *  3.6444567    5.9849063    7.0072226    0.0000000  
  51 C15     6.5695891    3.6444567    5.9849063    3.6444567    5.9849063  
  52 C15     2.4375536 *  5.9849063    3.6444567    5.9849063    3.6444567  
  53 C53     6.0533525    2.4375536 *  6.5695891    4.4495492    5.4131949  
  54 C53     3.5296021    6.5695891    2.4375536 *  5.4131949    4.4495492  
  55 C53     6.8692701    4.4495492    5.4131949    2.4375536 *  6.5695891  
  56 C53     1.3835809 *  5.4131949    4.4495492    6.5695891    2.4375536 *
  57 C51     6.0533525    2.8145117 *  6.4171405    4.0602293    5.7110162  
  58 C51     3.5296021    6.4171405    2.8145117 *  5.7110162    4.0602293  
  59 C51     6.5695891    4.0602293    5.7110162    2.8145117 *  6.4171405  
  60 C51     2.4375536 *  5.7110162    4.0602293    6.4171405    2.8145117 *

               51 C15       52 C15       53 C53       54 C53       55 C53   

   1 C2      2.4375536 *  6.5695891    3.6444567    5.9849063    2.8145117 *
   2 C2      6.5695891    2.4375536 *  5.9849063    3.6444567    6.4171405  
   3 C2      2.4375536 *  6.5695891    2.8145117 *  6.4171405    3.6444567  
   4 C2      6.5695891    2.4375536 *  6.4171405    2.8145117 *  5.9849063  
   5 C9      3.5296021    6.0533525    4.4495492    5.4131949    4.0602293  
   6 C9      6.0533525    3.5296021    5.4131949    4.4495492    5.7110162  
   7 C9      3.5296021    6.0533525    4.0602293    5.7110162    4.4495492  
   8 C9      6.0533525    3.5296021    5.7110162    4.0602293    5.4131949  
   9 C13     1.3835809 *  6.8692701    2.4375536 *  6.5695891    2.4375536 *
  10 C13     6.8692701    1.3835809 *  6.5695891    2.4375536 *  6.5695891  
  11 C3      4.5539755    5.3256431    5.4131949    4.4495492    4.7734952  
  12 C3      5.3256431    4.5539755    4.4495492    5.4131949    5.1298062  
  13 C3      4.5539755    5.3256431    4.7734952    5.1298062    5.4131949  
  14 C3      5.3256431    4.5539755    5.1298062    4.7734952    4.4495492  
  15 C7      4.7734952    5.1298062    5.7110162    4.0602293    4.5539755  
  16 C7      5.1298062    4.7734952    4.0602293    5.7110162    5.3256431  
  17 C7      4.7734952    5.1298062    4.5539755    5.3256431    5.7110162  
  18 C7      5.1298062    4.7734952    5.3256431    4.5539755    4.0602293  
  19 C22     5.7110162    4.0602293    6.4171405    2.8145117 *  5.4131949  
  20 C22     4.0602293    5.7110162    2.8145117 *  6.4171405    4.4495492  
  21 C22     5.7110162    4.0602293    5.4131949    4.4495492    6.4171405  
  22 C22     4.0602293    5.7110162    4.4495492    5.4131949    2.8145117 *
  23 C17     5.4131949    4.4495492    5.9849063    3.6444567    5.7110162  
  24 C17     4.4495492    5.4131949    3.6444567    5.9849063    4.0602293  
  25 C17     5.4131949    4.4495492    5.7110162    4.0602293    5.9849063  
  26 C17     4.4495492    5.4131949    4.0602293    5.7110162    3.6444567  
  27 C37     6.0533525    3.5296021    6.5695891    2.4375536 *  6.0533525  
  28 C37     3.5296021    6.0533525    2.4375536 *  6.5695891    3.5296021  
  29 C37     6.0533525    3.5296021    6.0533525    3.5296021    6.5695891  
  30 C37     3.5296021    6.0533525    3.5296021    6.0533525    2.4375536 *
  31 C56     2.8145117 *  6.4171405    2.4375536 *  6.5695891    4.0602293  
  32 C56     6.4171405    2.8145117 *  6.5695891    2.4375536 *  5.7110162  
  33 C56     2.8145117 *  6.4171405    4.0602293    5.7110162    2.4375536 *
  34 C56     6.4171405    2.8145117 *  5.7110162    4.0602293    6.5695891  
  35 C58     4.0602293    5.7110162    3.5296021    6.0533525    5.1298062  
  36 C58     5.7110162    4.0602293    6.0533525    3.5296021    4.7734952  
  37 C58     4.0602293    5.7110162    5.1298062    4.7734952    3.5296021  
  38 C58     5.7110162    4.0602293    4.7734952    5.1298062    6.0533525  
  39 C28     4.4495492    5.4131949    3.5296021    6.0533525    5.3256431  
  40 C28     5.4131949    4.4495492    6.0533525    3.5296021    4.5539755  
  41 C28     4.4495492    5.4131949    5.3256431    4.5539755    3.5296021  
  42 C28     5.4131949    4.4495492    4.5539755    5.3256431    6.0533525  
  43 C54     2.4375536 *  6.5695891    1.3835809 *  6.8692701    3.5296021  
  44 C54     6.5695891    2.4375536 *  6.8692701    1.3835809 *  6.0533525  
  45 C54     2.4375536 *  6.5695891    3.5296021    6.0533525    1.3835809 *
  46 C54     6.5695891    2.4375536 *  6.0533525    3.5296021    6.8692701  
  47 C27     3.6444567    5.9849063    2.4375536 *  6.5695891    4.4495492  
  48 C27     5.9849063    3.6444567    6.5695891    2.4375536 *  5.4131949  
  49 C27     3.6444567    5.9849063    4.4495492    5.4131949    2.4375536 *
  50 C27     5.9849063    3.6444567    5.4131949    4.4495492    6.5695891  
  51 C15     0.0000000    7.0072226    1.4309307 *  6.8595630    1.4309307 *
  52 C15     7.0072226    0.0000000    6.8595630    1.4309307 *  6.8595630  
  53 C53     1.4309307 *  6.8595630    0.0000000    7.0072226    2.3152946 *
  54 C53     6.8595630    1.4309307 *  7.0072226    0.0000000    6.6136661  
  55 C53     1.4309307 *  6.8595630    2.3152946 *  6.6136661    0.0000000  
  56 C53     6.8595630    1.4309307 *  6.6136661    2.3152946 *  7.0072226  
  57 C51     2.3152946 *  6.6136661    1.4309307 *  6.8595630    2.3152946 *
  58 C51     6.6136661    2.3152946 *  6.8595630    1.4309307 *  6.6136661  
  59 C51     2.3152946 *  6.6136661    2.3152946 *  6.6136661    1.4309307 *
  60 C51     6.6136661    2.3152946 *  6.6136661    2.3152946 *  6.8595630  

               56 C53       57 C51       58 C51       59 C51       60 C51   

   1 C2      6.4171405    4.4495492    5.4131949    4.0602293    5.7110162  
   2 C2      2.8145117 *  5.4131949    4.4495492    5.7110162    4.0602293  
   3 C2      5.9849063    4.0602293    5.7110162    4.4495492    5.4131949  
   4 C2      3.6444567    5.7110162    4.0602293    5.4131949    4.4495492  
   5 C9      5.7110162    5.3256431    4.5539755    5.1298062    4.7734952  
   6 C9      4.0602293    4.5539755    5.3256431    4.7734952    5.1298062  
   7 C9      5.4131949    5.1298062    4.7734952    5.3256431    4.5539755  
   8 C9      4.4495492    4.7734952    5.1298062    4.5539755    5.3256431  
   9 C13     6.5695891    3.5296021    6.0533525    3.5296021    6.0533525  
  10 C13     2.4375536 *  6.0533525    3.5296021    6.0533525    3.5296021  
  11 C3      5.1298062    6.0533525    3.5296021    5.7110162    4.0602293  
  12 C3      4.7734952    3.5296021    6.0533525    4.0602293    5.7110162  
  13 C3      4.4495492    5.7110162    4.0602293    6.0533525    3.5296021  
  14 C3      5.4131949    4.0602293    5.7110162    3.5296021    6.0533525  
  15 C7      5.3256431    6.0533525    3.5296021    5.4131949    4.4495492  
  16 C7      4.5539755    3.5296021    6.0533525    4.4495492    5.4131949  
  17 C7      4.0602293    5.4131949    4.4495492    6.0533525    3.5296021  
  18 C7      5.7110162    4.4495492    5.4131949    3.5296021    6.0533525  
  19 C22     4.4495492    6.5695891    2.4375536 *  5.9849063    3.6444567  
  20 C22     5.4131949    2.4375536 *  6.5695891    3.6444567    5.9849063  
  21 C22     2.8145117 *  5.9849063    3.6444567    6.5695891    2.4375536 *
  22 C22     6.4171405    3.6444567    5.9849063    2.4375536 *  6.5695891  
  23 C17     4.0602293    6.5695891    2.4375536 *  6.4171405    2.8145117 *
  24 C17     5.7110162    2.4375536 *  6.5695891    2.8145117 *  6.4171405  
  25 C17     3.6444567    6.4171405    2.8145117 *  6.5695891    2.4375536 *
  26 C17     5.9849063    2.8145117 *  6.4171405    2.4375536 *  6.5695891  
  27 C37     3.5296021    6.8692701    1.3835809 *  6.5695891    2.4375536 *
  28 C37     6.0533525    1.3835809 *  6.8692701    2.4375536 *  6.5695891  
  29 C37     2.4375536 *  6.5695891    2.4375536 *  6.8692701    1.3835809 *
  30 C37     6.5695891    2.4375536 *  6.5695891    1.3835809 *  6.8692701  
  31 C56     5.7110162    3.6444567    5.9849063    4.4495492    5.4131949  
  32 C56     4.0602293    5.9849063    3.6444567    5.4131949    4.4495492  
  33 C56     6.5695891    4.4495492    5.4131949    3.6444567    5.9849063  
  34 C56     2.4375536 *  5.4131949    4.4495492    5.9849063    3.6444567  
  35 C58     4.7734952    4.4495492    5.4131949    5.3256431    4.5539755  
  36 C58     5.1298062    5.4131949    4.4495492    4.5539755    5.3256431  
  37 C58     6.0533525    5.3256431    4.5539755    4.4495492    5.4131949  
  38 C58     3.5296021    4.5539755    5.3256431    5.4131949    4.4495492  
  39 C28     4.5539755    4.0602293    5.7110162    5.1298062    4.7734952  
  40 C28     5.3256431    5.7110162    4.0602293    4.7734952    5.1298062  
  41 C28     6.0533525    5.1298062    4.7734952    4.0602293    5.7110162  
  42 C28     3.5296021    4.7734952    5.1298062    5.7110162    4.0602293  
  43 C54     6.0533525    2.4375536 *  6.5695891    3.5296021    6.0533525  
  44 C54     3.5296021    6.5695891    2.4375536 *  6.0533525    3.5296021  
  45 C54     6.8692701    3.5296021    6.0533525    2.4375536 *  6.5695891  
  46 C54     1.3835809 *  6.0533525    3.5296021    6.5695891    2.4375536 *
  47 C27     5.4131949    2.8145117 *  6.4171405    4.0602293    5.7110162  
  48 C27     4.4495492    6.4171405    2.8145117 *  5.7110162    4.0602293  
  49 C27     6.5695891    4.0602293    5.7110162    2.8145117 *  6.4171405  
  50 C27     2.4375536 *  5.7110162    4.0602293    6.4171405    2.8145117 *
  51 C15     6.8595630    2.3152946 *  6.6136661    2.3152946 *  6.6136661  
  52 C15     1.4309307 *  6.6136661    2.3152946 *  6.6136661    2.3152946 *
  53 C53     6.6136661    1.4309307 *  6.8595630    2.3152946 *  6.6136661  
  54 C53     2.3152946 *  6.8595630    1.4309307 *  6.6136661    2.3152946 *
  55 C53     7.0072226    2.3152946 *  6.6136661    1.4309307 *  6.8595630  
  56 C53     0.0000000    6.6136661    2.3152946 *  6.8595630    1.4309307 *
  57 C51     6.6136661    0.0000000    7.0072226    1.4309307 *  6.8595630  
  58 C51     2.3152946 *  7.0072226    0.0000000    6.8595630    1.4309307 *
  59 C51     6.8595630    1.4309307 *  6.8595630    0.0000000    7.0072226  
  60 C51     1.4309307 *  6.8595630    1.4309307 *  7.0072226    0.0000000  

  * ... LESS THAN  3.000


 TOTAL NUMBER OF BASIS SET SHELLS             =   60
 NUMBER OF CARTESIAN GAUSSIAN BASIS FUNCTIONS =  240
 NUMBER OF ELECTRONS                          =  240
 CHARGE OF MOLECULE                           =    0
 SPIN MULTIPLICITY                            =    1
 NUMBER OF OCCUPIED ORBITALS (ALPHA)          =  120
 NUMBER OF OCCUPIED ORBITALS (BETA )          =  120
 TOTAL NUMBER OF ATOMS                        =   60
 THE NUCLEAR REPULSION ENERGY IS     8437.0598505097

 THE PARAMETERS USED IN THIS CALCULATION ARE DESCRIBED IN:

  C: (AM1): M.J.S. DEWAR ET AL, J. AM. CHEM. SOC. 107 3902-3909 (1985)          

 THERE ARE   60 HEAVY AND    0 LIGHT ATOMS,
 YIELDING A TOTAL OF    177000 MOPAC 2E- INTEGRALS.

     $CONTRL OPTIONS
     ---------------
 SCFTYP=RHF          RUNTYP=OPTIMIZE     EXETYP=RUN     
 MPLEVL=       0     CITYP =NONE         CCTYP =NONE         VBTYP =NONE    
 DFTTYP=NONE         TDDFT =NONE    
 MULT  =       1     ICHARG=       0     NZVAR =       0     COORD =ZMT     
 PP    =NONE         RELWFN=NONE         LOCAL =NONE         NUMGRD=       F
 ISPHER=      -1     NOSYM =       0     MAXIT =      30     UNITS =ANGS    
 PLTORB=       F     MOLPLT=       F     AIMPAC=       F     FRIEND=        
 NPRINT=       7     IREST =       0     GEOM  =INPUT   
 NORMF =       0     NORMP =       0     ITOL  =      20     ICUT  =       9
 INTTYP=BEST         GRDTYP=BEST         QMTTOL= 1.0E-06

     $SYSTEM OPTIONS
     ---------------
  REPLICATED MEMORY=     1000000 WORDS (ON EVERY NODE).
 DISTRIBUTED MEMDDI=           0 MILLION WORDS IN AGGREGATE,
 MEMDDI DISTRIBUTED OVER   1 PROCESSORS IS           0 WORDS/PROCESSOR.
 TOTAL MEMORY REQUESTED ON EACH PROCESSOR=     1000000 WORDS.
 TIMLIM=      525600.00 MINUTES, OR     365.0 DAYS.
 PARALL= F  BALTYP=  DLB     KDIAG=    0  COREFL= F
 MXSEQ2=     300 MXSEQ3=     150

          ----------------
          PROPERTIES INPUT
          ----------------

     MOMENTS            FIELD           POTENTIAL          DENSITY
 IEMOM =       1   IEFLD =       0   IEPOT =       0   IEDEN =       0
 WHERE =COMASS     WHERE =NUCLEI     WHERE =NUCLEI     WHERE =NUCLEI  
 OUTPUT=BOTH       OUTPUT=BOTH       OUTPUT=BOTH       OUTPUT=BOTH    
 IEMINT=       0   IEFINT=       0                     IEDINT=       0
                                                       MORB  =       0
          EXTRAPOLATION IN EFFECT
 ORBITAL PRINTING OPTION: NPREO=     1   240     2     1

     -------------------------------
     INTEGRAL TRANSFORMATION OPTIONS
     -------------------------------
     NWORD  =            0
     CUTOFF = 1.0E-09     MPTRAN =       0
     DIRTRF =       F     AOINTS =DUP     

          ----------------------
          INTEGRAL INPUT OPTIONS
          ----------------------
 NOPK  =       1 NORDER=       0 SCHWRZ=       T

     ------------------------------------------
     THE POINT GROUP IS CNH, NAXIS= 2, ORDER= 4
     ------------------------------------------

     DIMENSIONS OF THE SYMMETRY SUBSPACES ARE
 AG  =   62     AU  =   58     BU  =   62     BG  =   58

 ..... DONE SETTING UP THE RUN .....
 STEP CPU TIME =     0.02 TOTAL CPU TIME =        0.0 (    0.0 MIN)
 TOTAL WALL CLOCK TIME=        0.0 SECONDS, CPU UTILIZATION IS  66.67%


          -----------------------------
          STATIONARY POINT LOCATION RUN
          -----------------------------

 OBTAINING INITIAL HESSIAN, HESS=GUESS   
 CARTESIAN COORDINATE OPTIMIZATION USING BADGER'S RULE FORCE CONSTANT GUESS

          PARAMETERS CONTROLLING GEOMETRY SEARCH ARE
          METHOD =QA                  UPHESS =BFGS    
          NNEG   =         0          NFRZ   =         0
          NSTEP  =        50          IFOLOW =         1
          HESS   =GUESS               RESTAR =         F
          IHREP  =         0          HSSEND =         F
          NPRT   =         0          NPUN   =         0
          OPTTOL = 1.000E-04          RMIN   = 1.500E-03
          RMAX   = 1.000E-01          RLIM   = 7.000E-02
          DXMAX  = 3.000E-01          PURIFY =         F
          MOVIE  =         F          TRUPD  =         T
          TRMAX  = 5.000E-01          TRMIN  = 5.000E-02
          ITBMAT =         5          STPT   =         F
          STSTEP = 1.000E-02          PROJCT=          T

 BEGINNING GEOMETRY SEARCH POINT NSERCH=   0 ...

 COORDINATES OF SYMMETRY UNIQUE ATOMS (ANGS)
   ATOM   CHARGE       X              Y              Z
 ------------------------------------------------------------
 C2          6.0   0.3761424022   3.2853708524   1.1576472789
 C9          6.0  -0.9847535936   3.2853708524   0.7154653653
 C13         6.0   1.2172223827   3.2853708524   0.0000000000
 C3          6.0  -1.9369214867   2.5579793081   1.4072558335
 C7          6.0  -1.5607790845   1.8056945037   2.5649031123
 C22         6.0  -2.3130638889   0.5884721209   2.5649031123
 C17         6.0  -2.9216750802   1.8056945037   0.6917904682
 C37         6.0  -3.1541438694   0.5884721209   1.4072558335
 C56         6.0   0.7398381744   2.5579793081  -2.2769877694
 C58         6.0  -0.2449154192   1.8056945037  -2.9924531348
 C28         6.0   0.3636957722   0.5884721209  -3.4346350483
 C54         6.0   1.9570605571   1.8056945037  -2.2769877694
 C27         6.0   1.7245917679   0.5884721209  -2.9924531348
 C15         6.0   2.3941666246   2.5579793081   0.0000000000
 C53         6.0   2.7703090268   1.8056945037  -1.1576472789
 C51         6.0   3.3789202182   0.5884721209  -0.7154653653
 COORDINATES OF ALL ATOMS ARE (ANGS)
   ATOM   CHARGE       X              Y              Z
 ------------------------------------------------------------
 C2          6.0  -0.3761424022  -3.2853708524   1.1576472789
 C2          6.0   0.3761424022   3.2853708524  -1.1576472789
 C2          6.0  -0.3761424022  -3.2853708524  -1.1576472789
 C2          6.0   0.3761424022   3.2853708524   1.1576472789
 C9          6.0   0.9847535936  -3.2853708524   0.7154653653
 C9          6.0  -0.9847535936   3.2853708524  -0.7154653653
 C9          6.0   0.9847535936  -3.2853708524  -0.7154653653
 C9          6.0  -0.9847535936   3.2853708524   0.7154653653
 C13         6.0  -1.2172223827  -3.2853708524   0.0000000000
 C13         6.0   1.2172223827   3.2853708524   0.0000000000
 C3          6.0   1.9369214867  -2.5579793081   1.4072558335
 C3          6.0  -1.9369214867   2.5579793081  -1.4072558335
 C3          6.0   1.9369214867  -2.5579793081  -1.4072558335
 C3          6.0  -1.9369214867   2.5579793081   1.4072558335
 C7          6.0   1.5607790845  -1.8056945037   2.5649031123
 C7          6.0  -1.5607790845   1.8056945037  -2.5649031123
 C7          6.0   1.5607790845  -1.8056945037  -2.5649031123
 C7          6.0  -1.5607790845   1.8056945037   2.5649031123
[...]
   80  C 20  Z    0.140363  -0.009710  -0.088436   0.177822   0.047425
   81  C 21  S    0.010388  -0.000240   0.024023   0.040946  -0.012808
   82  C 21  X    0.129687  -0.004687   0.108942   0.151662  -0.012684
   83  C 21  Y   -0.021655  -0.001797  -0.014882  -0.053714  -0.024496
   84  C 21  Z   -0.140364  -0.009710  -0.088436  -0.177822   0.047424
   85  C 22  S    0.010388  -0.000240   0.024023   0.040946  -0.012808
   86  C 22  X   -0.129687   0.004687  -0.108942  -0.151662   0.012684
   87  C 22  Y    0.021655   0.001797   0.014882   0.053714   0.024496
   88  C 22  Z    0.140364   0.009710   0.088436   0.177822  -0.047424
   89  C 23  S    0.011198  -0.020593   0.005040  -0.014909   0.011959
   90  C 23  X    0.175446  -0.103812   0.049506  -0.069402   0.056977
   91  C 23  Y   -0.105281   0.080224  -0.007450   0.039556  -0.017307
   92  C 23  Z    0.032562  -0.060219   0.025573  -0.008384   0.020970
   93  C 24  S    0.011198  -0.020593   0.005040  -0.014909   0.011959
   94  C 24  X   -0.175446   0.103812  -0.049506   0.069402  -0.056977
   95  C 24  Y    0.105281  -0.080224   0.007450  -0.039556   0.017307
   96  C 24  Z   -0.032562   0.060219  -0.025573   0.008384  -0.020970
   97  C 25  S   -0.011198  -0.020593   0.005040   0.014908   0.011960
   98  C 25  X   -0.175446  -0.103812   0.049506   0.069401   0.056977
   99  C 25  Y    0.105281   0.080224  -0.007450  -0.039556  -0.017307
  100  C 25  Z    0.032562   0.060219  -0.025573  -0.008384  -0.020970
  101  C 26  S   -0.011198  -0.020593   0.005040   0.014908   0.011960
  102  C 26  X    0.175446   0.103812  -0.049506  -0.069401  -0.056977
  103  C 26  Y   -0.105281  -0.080224   0.007450   0.039556   0.017307
  104  C 26  Z   -0.032562  -0.060219   0.025573   0.008384   0.020970
  105  C 27  S    0.001311   0.019680  -0.032877   0.007598  -0.028959
  106  C 27  X    0.016673   0.111967  -0.155798   0.050363  -0.150436
  107  C 27  Y    0.007747  -0.029680   0.026648  -0.034008   0.024997
  108  C 27  Z    0.026225   0.048991  -0.080601   0.050541  -0.046256
  109  C 28  S    0.001311   0.019680  -0.032877   0.007598  -0.028959
  110  C 28  X   -0.016673  -0.111967   0.155798  -0.050363   0.150436
  111  C 28  Y   -0.007747   0.029680  -0.026648   0.034008  -0.024997
  112  C 28  Z   -0.026225  -0.048991   0.080601  -0.050541   0.046256
  113  C 29  S   -0.001311   0.019680  -0.032877  -0.007598  -0.028959
  114  C 29  X   -0.016672   0.111967  -0.155798  -0.050362  -0.150437
  115  C 29  Y   -0.007747  -0.029680   0.026648   0.034008   0.024998
  116  C 29  Z    0.026224  -0.048991   0.080601   0.050541   0.046257
  117  C 30  S   -0.001311   0.019680  -0.032877  -0.007598  -0.028959
  118  C 30  X    0.016672  -0.111967   0.155798   0.050362   0.150437
  119  C 30  Y    0.007747   0.029680  -0.026648  -0.034008  -0.024998
  120  C 30  Z   -0.026224   0.048991  -0.080601  -0.050541  -0.046257
  121  C 31  S   -0.009076   0.039837   0.012829   0.016370   0.019508
  122  C 31  X    0.040922  -0.033717  -0.038800  -0.015070  -0.039183
  123  C 31  Y    0.127183  -0.160223  -0.046788  -0.079560  -0.084223
  124  C 31  Z    0.101974  -0.136520  -0.081090  -0.065296  -0.055086
  125  C 32  S   -0.009076   0.039837   0.012829   0.016370   0.019508
  126  C 32  X   -0.040922   0.033717   0.038800   0.015070   0.039183
  127  C 32  Y   -0.127183   0.160223   0.046788   0.079560   0.084223
  128  C 32  Z   -0.101974   0.136520   0.081090   0.065296   0.055086
  129  C 33  S    0.009076   0.039837   0.012829  -0.016370   0.019508
  130  C 33  X   -0.040922  -0.033717  -0.038800   0.015070  -0.039182
  131  C 33  Y   -0.127184  -0.160223  -0.046788   0.079561  -0.084223
  132  C 33  Z    0.101974   0.136520   0.081090  -0.065296   0.055086
  133  C 34  S    0.009076   0.039837   0.012829  -0.016370   0.019508
  134  C 34  X    0.040922   0.033717   0.038800  -0.015070   0.039182
  135  C 34  Y    0.127184   0.160223   0.046788  -0.079561   0.084223
  136  C 34  Z   -0.101974  -0.136520  -0.081090   0.065296  -0.055086
  137  C 35  S   -0.007731  -0.019320  -0.021481  -0.006137   0.027071
  138  C 35  X   -0.018525   0.014380  -0.001060   0.024770   0.022600
  139  C 35  Y    0.059732   0.077490   0.069286   0.010462  -0.063710
  140  C 35  Z    0.129763   0.098208   0.122677   0.051403  -0.131927
  141  C 36  S   -0.007731  -0.019320  -0.021481  -0.006137   0.027071
  142  C 36  X    0.018525  -0.014380   0.001060  -0.024770  -0.022600
  143  C 36  Y   -0.059732  -0.077490  -0.069286  -0.010462   0.063710
  144  C 36  Z   -0.129763  -0.098208  -0.122677  -0.051403   0.131927
  145  C 37  S    0.007731  -0.019320  -0.021481   0.006137   0.027071
  146  C 37  X    0.018525   0.014380  -0.001060  -0.024770   0.022600
  147  C 37  Y   -0.059732   0.077490   0.069286  -0.010461  -0.063709
  148  C 37  Z    0.129764  -0.098208  -0.122677   0.051402   0.131927
  149  C 38  S    0.007731  -0.019320  -0.021481   0.006137   0.027071
  150  C 38  X   -0.018525  -0.014380   0.001060   0.024770  -0.022600
  151  C 38  Y    0.059732  -0.077490  -0.069286   0.010461   0.063709
  152  C 38  Z   -0.129764   0.098208   0.122677  -0.051402  -0.131927
  153  C 39  S    0.004298   0.005457   0.012030   0.040040  -0.020445
  154  C 39  X    0.012214  -0.014215  -0.010793  -0.003408   0.031507
  155  C 39  Y   -0.022240  -0.025773  -0.021457  -0.024363   0.047890
  156  C 39  Z   -0.078524  -0.052057  -0.061588  -0.214408   0.126314
  157  C 40  S    0.004298   0.005457   0.012030   0.040040  -0.020445
  158  C 40  X   -0.012214   0.014215   0.010793   0.003408  -0.031507
  159  C 40  Y    0.022240   0.025773   0.021457   0.024363  -0.047890
  160  C 40  Z    0.078524   0.052057   0.061588   0.214408  -0.126314
  161  C 41  S   -0.004298   0.005457   0.012030  -0.040040  -0.020445
  162  C 41  X   -0.012214  -0.014215  -0.010793   0.003408   0.031507
  163  C 41  Y    0.022240  -0.025773  -0.021457   0.024363   0.047890
  164  C 41  Z   -0.078524   0.052057   0.061589  -0.214407  -0.126316
  165  C 42  S   -0.004298   0.005457   0.012030  -0.040040  -0.020445
  166  C 42  X    0.012214   0.014215   0.010793  -0.003408  -0.031507
  167  C 42  Y   -0.022240   0.025773   0.021457  -0.024363  -0.047890
  168  C 42  Z    0.078524  -0.052057  -0.061589   0.214407   0.126316
  169  C 43  S    0.002122   0.002756  -0.040599   0.009621  -0.021824
  170  C 43  X   -0.015593  -0.022652   0.127621  -0.041079   0.059870
  171  C 43  Y   -0.035302   0.019998   0.119877  -0.030217   0.063061
  172  C 43  Z   -0.018956   0.009257   0.128947  -0.016910   0.107400
  173  C 44  S    0.002122   0.002756  -0.040599   0.009621  -0.021824
  174  C 44  X    0.015593   0.022652  -0.127621   0.041079  -0.059870
  175  C 44  Y    0.035302  -0.019998  -0.119877   0.030217  -0.063061
  176  C 44  Z    0.018956  -0.009257  -0.128947   0.016910  -0.107400
  177  C 45  S   -0.002122   0.002756  -0.040599  -0.009621  -0.021824
  178  C 45  X    0.015594  -0.022652   0.127620   0.041078   0.059870
  179  C 45  Y    0.035302   0.019998   0.119877   0.030217   0.063061
  180  C 45  Z   -0.018956  -0.009257  -0.128947  -0.016909  -0.107400
  181  C 46  S   -0.002122   0.002756  -0.040599  -0.009621  -0.021824
  182  C 46  X   -0.015594   0.022652  -0.127620  -0.041078  -0.059870
  183  C 46  Y   -0.035302  -0.019998  -0.119877  -0.030217  -0.063061
  184  C 46  Z    0.018956   0.009257   0.128947   0.016909   0.107400
  185  C 47  S    0.010388  -0.010013  -0.008071   0.014002   0.037445
  186  C 47  X   -0.098233   0.026721   0.010349  -0.055869  -0.107392
  187  C 47  Y   -0.025333   0.009739  -0.024393   0.013438  -0.050386
  188  C 47  Z   -0.163215   0.038966   0.037320  -0.035098  -0.197959
  189  C 48  S    0.010388  -0.010013  -0.008071   0.014002   0.037445
  190  C 48  X    0.098233  -0.026721  -0.010349   0.055869   0.107392
  191  C 48  Y    0.025333  -0.009739   0.024393  -0.013438   0.050386
  192  C 48  Z    0.163215  -0.038966  -0.037320   0.035098   0.197959
  193  C 49  S   -0.010388  -0.010013  -0.008071  -0.014003   0.037445
  194  C 49  X    0.098233   0.026721   0.010349   0.055870  -0.107392
  195  C 49  Y    0.025333   0.009739  -0.024393  -0.013438  -0.050386
  196  C 49  Z   -0.163216  -0.038966  -0.037320  -0.035099   0.197959
  197  C 50  S   -0.010388  -0.010013  -0.008071  -0.014003   0.037445
  198  C 50  X   -0.098233  -0.026721  -0.010349  -0.055870   0.107392
  199  C 50  Y   -0.025333  -0.009739   0.024393   0.013438   0.050386
  200  C 50  Z    0.163216   0.038966   0.037320   0.035099  -0.197959
  201  C 51  S    0.000000   0.035696   0.012554  -0.000000   0.031403
  202  C 51  X   -0.000001  -0.135167   0.001117   0.000000  -0.142527
  203  C 51  Y   -0.000001  -0.138085  -0.060659   0.000000  -0.136994
  204  C 51  Z    0.001492   0.000000   0.000000  -0.027670  -0.000000
  205  C 52  S    0.000000   0.035696   0.012554  -0.000000   0.031403
  206  C 52  X    0.000001   0.135167  -0.001117  -0.000000   0.142527
  207  C 52  Y    0.000001   0.138085   0.060659  -0.000000   0.136994
  208  C 52  Z   -0.001492  -0.000000  -0.000000   0.027670   0.000000
  209  C 53  S   -0.002122  -0.016881   0.030554  -0.030419  -0.016527
  210  C 53  X    0.032256   0.080952  -0.122688   0.133668   0.097858
  211  C 53  Y    0.016483   0.074690  -0.082368   0.079190   0.051178
  212  C 53  Z    0.015809   0.019452  -0.075905   0.056349   0.010878
  213  C 54  S   -0.002122  -0.016881   0.030554  -0.030419  -0.016527
  214  C 54  X   -0.032256  -0.080952   0.122688  -0.133668  -0.097858
  215  C 54  Y   -0.016483  -0.074690   0.082368  -0.079190  -0.051178
  216  C 54  Z   -0.015809  -0.019452   0.075905  -0.056349  -0.010878
  217  C 55  S    0.002122  -0.016881   0.030554   0.030419  -0.016527
  218  C 55  X   -0.032257   0.080952  -0.122688  -0.133669   0.097857
  219  C 55  Y   -0.016483   0.074690  -0.082368  -0.079191   0.051178
  220  C 55  Z    0.015809  -0.019452   0.075905   0.056349  -0.010878
  221  C 56  S    0.002122  -0.016881   0.030554   0.030419  -0.016527
  222  C 56  X    0.032257  -0.080952   0.122688   0.133669  -0.097857
  223  C 56  Y    0.016483  -0.074690   0.082368   0.079191  -0.051178
  224  C 56  Z   -0.015809   0.019452  -0.075905  -0.056349   0.010878
  225  C 57  S   -0.001311  -0.009730   0.006182   0.022507   0.026591
  226  C 57  X    0.025928   0.031373  -0.034675  -0.143348  -0.130306
  227  C 57  Y   -0.001796  -0.012197   0.019178  -0.049921  -0.019136
  228  C 57  Z   -0.002257   0.019473  -0.010024  -0.022705  -0.052323
  229  C 58  S   -0.001311  -0.009730   0.006182   0.022507   0.026591
  230  C 58  X   -0.025928  -0.031373   0.034675   0.143348   0.130306
  231  C 58  Y    0.001796   0.012197  -0.019178   0.049921   0.019136
  232  C 58  Z    0.002257  -0.019473   0.010024   0.022705   0.052323
  233  C 59  S    0.001311  -0.009730   0.006182  -0.022507   0.026591
  234  C 59  X   -0.025926   0.031373  -0.034675   0.143349  -0.130306
  235  C 59  Y    0.001796  -0.012197   0.019178   0.049922  -0.019136
  236  C 59  Z   -0.002258  -0.019473   0.010024  -0.022705   0.052323
  237  C 60  S    0.001311  -0.009730   0.006182  -0.022507   0.026591
  238  C 60  X    0.025926  -0.031373   0.034675  -0.143349   0.130306
  239  C 60  Y   -0.001796   0.012197  -0.019178  -0.049922   0.019136
  240  C 60  Z    0.002258   0.019473  -0.010024   0.022705  -0.052323

     ----------------------------------------------------------------
     PROPERTY VALUES FOR THE RHF   SELF-CONSISTENT FIELD WAVEFUNCTION
     ----------------------------------------------------------------

                    -------------
                    MOPAC CHARGES
                    -------------
         ATOM NO.   TYPE          CHARGE        ATOM  ELECTRON DENSITY
           1         C             -0.0000          4.0000
           2         C             -0.0000          4.0000
           3         C             -0.0000          4.0000
           4         C             -0.0000          4.0000
           5         C             -0.0000          4.0000
           6         C             -0.0000          4.0000
           7         C             -0.0000          4.0000
           8         C             -0.0000          4.0000
           9         C             -0.0000          4.0000
          10         C             -0.0000          4.0000
          11         C              0.0000          4.0000
          12         C              0.0000          4.0000
          13         C              0.0000          4.0000
          14         C              0.0000          4.0000
          15         C             -0.0000          4.0000
          16         C             -0.0000          4.0000
          17         C             -0.0000          4.0000
          18         C             -0.0000          4.0000
          19         C              0.0000          4.0000
          20         C              0.0000          4.0000
          21         C              0.0000          4.0000
          22         C              0.0000          4.0000
          23         C             -0.0000          4.0000
          24         C             -0.0000          4.0000
          25         C             -0.0000          4.0000
          26         C             -0.0000          4.0000
          27         C              0.0000          4.0000
          28         C              0.0000          4.0000
          29         C              0.0000          4.0000
          30         C              0.0000          4.0000
          31         C              0.0000          4.0000
          32         C              0.0000          4.0000
          33         C              0.0000          4.0000
          34         C              0.0000          4.0000
          35         C             -0.0000          4.0000
          36         C             -0.0000          4.0000
          37         C             -0.0000          4.0000
          38         C             -0.0000          4.0000
          39         C             -0.0000          4.0000
          40         C             -0.0000          4.0000
          41         C             -0.0000          4.0000
          42         C             -0.0000          4.0000
          43         C              0.0000          4.0000
          44         C              0.0000          4.0000
          45         C              0.0000          4.0000
          46         C              0.0000          4.0000
          47         C             -0.0000          4.0000
          48         C             -0.0000          4.0000
          49         C             -0.0000          4.0000
          50         C             -0.0000          4.0000
          51         C              0.0000          4.0000
          52         C              0.0000          4.0000
          53         C              0.0000          4.0000
          54         C              0.0000          4.0000
          55         C              0.0000          4.0000
          56         C              0.0000          4.0000
          57         C             -0.0000          4.0000
          58         C             -0.0000          4.0000
          59         C             -0.0000          4.0000
          60         C             -0.0000          4.0000

          ---------------------
          ELECTROSTATIC MOMENTS
          ---------------------

 POINT   1           X           Y           Z (ANGS)      CHARGE
                 0.000000    0.000000    0.000000       -0.00 (A.U.)
         DX          DY          DZ         /D/  (DEBYE)
    -0.000000   -0.000000   -0.000000    0.000000
 ...... END OF PROPERTY EVALUATION ......
 STEP CPU TIME =     0.23 TOTAL CPU TIME =        3.1 (    0.1 MIN)
 TOTAL WALL CLOCK TIME=        3.1 SECONDS, CPU UTILIZATION IS  99.67%
  $VIB   
          IVIB=   0 IATOM=   0 ICOORD=   0 E=     -281.1795941863
 -3.789605472E-06 4.972230730E-06 1.166232977E-05 3.789624015E-06-4.972234206E-06
 -1.166234043E-05-3.789611684E-06 4.972220804E-06-1.166234213E-05 3.789607221E-06
 -4.972244942E-06 1.166233335E-05 9.919572004E-06 4.974882534E-06 7.207207429E-06
 -9.919584705E-06-4.974878514E-06-7.207204461E-06 9.919580058E-06 4.974871443E-06
 -7.207196925E-06-9.919576639E-06-4.974871363E-06 7.207212779E-06-1.226336277E-05
  4.970549516E-06 0.000000000E+00 1.226335226E-05-4.970546064E-06 0.000000000E+00
 -8.029993727E-06-8.750719221E-06-5.834423595E-06 8.030000040E-06 8.750735237E-06
  5.834413976E-06-8.029988713E-06-8.750725355E-06 5.834428119E-06 8.029997530E-06
  8.750731933E-06-5.834425669E-06-1.182713792E-05-1.162232345E-06 5.820488925E-06
  1.182714555E-05 1.162212330E-06-5.820478650E-06-1.182715510E-05-1.162215408E-06
 -5.820480653E-06 1.182715909E-05 1.162222480E-06 5.820493773E-06-4.244293685E-06
  1.109685677E-05 5.826440291E-06 4.244290285E-06-1.109684133E-05-5.826446233E-06
 -4.244302636E-06 1.109684550E-05-5.826437074E-06 4.244303268E-06-1.109685119E-05
  5.826436765E-06 1.882398182E-06-1.163144409E-06-1.304666528E-05-1.882401159E-06
  1.163133154E-06 1.304666345E-05 1.882393623E-06-1.163143386E-06 1.304665891E-05
 -1.882410424E-06 1.163137140E-06-1.304665884E-05 4.231416255E-06 1.109639518E-05
 -5.836531578E-06-4.231418390E-06-1.109639400E-05 5.836513046E-06 4.231426160E-06
  1.109639326E-05 5.836523070E-06-4.231414176E-06-1.109640561E-05-5.836526758E-06
  3.069161932E-06-8.745117778E-06 9.444831213E-06-3.069160050E-06 8.745124328E-06
 -9.444834733E-06 3.069171055E-06-8.745126579E-06-9.444840092E-06-3.069171945E-06
  8.745119634E-06 9.444833771E-06 1.299011987E-05-1.166580487E-06 2.235767405E-06
 -1.299010996E-05 1.166579424E-06-2.235767090E-06 1.299012089E-05-1.166577304E-06
 -2.235763589E-06-1.299010229E-05 1.166572083E-06 2.235767891E-06 6.858536931E-06
  1.109690242E-05-2.217359865E-06-6.858542564E-06-1.109690297E-05 2.217373581E-06
  6.858535617E-06 1.109690383E-05 2.217374483E-06-6.858542246E-06-1.109689626E-05
 -2.217378322E-06-9.192706910E-06-1.164586148E-06 9.446713017E-06 9.192693634E-06
  1.164582091E-06-9.446728675E-06-9.192714697E-06-1.164590089E-06-9.446725533E-06
  9.192705340E-06 1.164598354E-06 9.446722234E-06-6.851547826E-06 1.109723058E-05
  2.237642822E-06 6.851559484E-06-1.109720354E-05-2.237633596E-06-6.851560149E-06
  1.109722398E-05-2.237635381E-06 6.851549767E-06-1.109723580E-05 2.237629740E-06
  9.934091173E-06-8.741748249E-06 0.000000000E+00-9.934095881E-06 8.741738471E-06
  0.000000000E+00 6.139215778E-06-1.167508921E-06-1.166378399E-05-6.139209534E-06
  1.167508111E-06 1.166378093E-05 6.139201945E-06-1.167507280E-06 1.166380151E-05
 -6.139215762E-06 1.167513751E-06-1.166377554E-05 1.273669142E-08 1.109738170E-05
 -7.207289906E-06-1.273585950E-08-1.109736950E-05 7.207273993E-06 1.274961892E-08
  1.109737302E-05 7.207296498E-06-1.274238195E-08-1.109737154E-05-7.207282782E-06
 -1.382016559E-13-1.758053351E-13-3.162826071E-13
 ......END OF GEOMETRY SEARCH......
 STEP CPU TIME =     0.05 TOTAL CPU TIME =        3.1 (    0.1 MIN)
 TOTAL WALL CLOCK TIME=        3.1 SECONDS, CPU UTILIZATION IS  99.36%
      585962  WORDS OF DYNAMIC MEMORY USED
 EXECUTION OF GAMESS TERMINATED NORMALLY Mon Oct  3 12:59:45 2011
 DDI: 263224 bytes (0.3 MB / 0 MWords) used by master data server.

 ----------------------------------------
 CPU timing information for all processes
 ========================================
 0: 3.08 + 0.112 = 3.120
 ----------------------------------------
 ddikick.x: exited gracefully.
unset echo
----- accounting info -----
Files used on the master node idhi were:
-rw-r--r-- 1 koushik koushik    4191 2011-10-03 12:59 /home/koushik/Desktop/gamess/c60opt.F05
-rw-r--r-- 1 koushik koushik       0 2011-10-03 12:59 /home/koushik/Desktop/gamess/c60opt.F08
-rw-r--r-- 1 koushik koushik 5791440 2011-10-03 12:59 /home/koushik/Desktop/gamess/c60opt.F10
Mon Oct  3 12:59:48 IST 2011
0.0u 0.0s 0:06.23 2.0% 0+0k 0+32io 0pf+0w
