
          ******************************************************
          *         GAMESS VERSION =  1 OCT 2010 (R1)          *
          *             FROM IOWA STATE UNIVERSITY             *
          * M.W.SCHMIDT, K.K.BALDRIDGE, J.A.BOATZ, S.T.ELBERT, *
          *   M.S.GORDON, J.H.JENSEN, S.KOSEKI, N.MATSUNAGA,   *
          *          K.A.NGUYEN, S.J.SU, T.L.WINDUS,           *
          *       TOGETHER WITH M.DUPUIS, J.A.MONTGOMERY       *
          *         J.COMPUT.CHEM.  14, 1347-1363(1993)        *
          **************** 32 BIT LINUX VERSION ****************

  SINCE 1993, STUDENTS AND POSTDOCS WORKING AT IOWA STATE UNIVERSITY
  AND ALSO IN THEIR VARIOUS JOBS AFTER LEAVING ISU HAVE MADE IMPORTANT
  CONTRIBUTIONS TO THE CODE:
     IVANA ADAMOVIC, CHRISTINE AIKENS, YURI ALEXEEV, POOJA ARORA,
     ANDREY ASADCHEV, ROB BELL, PRADIPTA BANDYOPADHYAY, JONATHAN BENTZ,
     BRETT BODE, GALINA CHABAN, WEI CHEN, CHEOL HO CHOI, PAUL DAY, TIM DUDLEY,
     DMITRI FEDOROV, GRAHAM FLETCHER, MARK FREITAG, KURT GLAESEMANN, DAN KEMP,
     GRANT MERRILL, NORIYUKI MINEZAWA, JONATHAN MULLIN, TAKESHI NAGATA,
     SEAN NEDD, HEATHER NETZLOFF, BOSILJKA NJEGIC, RYAN OLSON, MIKE PAK,
     JIM SHOEMAKER, LYUDMILA SLIPCHENKO, SAROM SOK, JIE SONG,
     TETSUYA TAKETSUGU, SIMON WEBB, SOOHAENG YOO, FEDERICO ZAHARIEV

  ADDITIONAL CODE HAS BEEN PROVIDED BY COLLABORATORS IN OTHER GROUPS:
     IOWA STATE UNIVERSITY:
          JOE IVANIC, LAIMUTIS BYTAUTAS, KLAUS RUEDENBERG
     UNIVERSITY OF TOKYO: KIMIHIKO HIRAO, TAKAHITO NAKAJIMA,
          TAKAO TSUNEDA, MUNEAKI KAMIYA, SUSUMU YANAGISAWA,
          KIYOSHI YAGI, MAHITO CHIBA, SEIKEN TOKURA, NAOAKI KAWAKAMI
     UNIVERSITY OF AARHUS: FRANK JENSEN
     UNIVERSITY OF IOWA: VISVALDAS KAIRYS, HUI LI
     NATIONAL INST. OF STANDARDS AND TECHNOLOGY: WALT STEVENS, DAVID GARMER
     UNIVERSITY OF PISA: BENEDETTA MENNUCCI, JACOPO TOMASI
     UNIVERSITY OF MEMPHIS: HENRY KURTZ, PRAKASHAN KORAMBATH
     UNIVERSITY OF ALBERTA: TOBY ZENG, MARIUSZ KLOBUKOWSKI
     UNIVERSITY OF NEW ENGLAND: MARK SPACKMAN
     MIE UNIVERSITY: HIROAKI UMEDA
     MICHIGAN STATE UNIVERSITY:
          KAROL KOWALSKI, MARTA WLOCH, JEFFREY GOUR, JESSE LUTZ, PIOTR PIECUCH
     UNIVERSITY OF SILESIA: MONIKA MUSIAL, STANISLAW KUCHARSKI
     FACULTES UNIVERSITAIRES NOTRE-DAME DE LA PAIX:
          OLIVIER QUINET, BENOIT CHAMPAGNE
     UNIVERSITY OF CALIFORNIA - SANTA BARBARA: BERNARD KIRTMAN
     INSTITUTE FOR MOLECULAR SCIENCE:
          KAZUYA ISHIMURA, MICHIO KATOUDA, AND SHIGERU NAGASE
     UNIVERSITY OF NOTRE DAME: DAN CHIPMAN
     KYUSHU UNIVERSITY:
          HARUYUKI NAKANO,
          FENG LONG GU, JACEK KORCHOWIEC, MARCIN MAKOWSKI, AND YURIKO AOKI,
          HIROTOSHI MORI AND EISAKU MIYOSHI
     PENNSYLVANIA STATE UNIVERSITY:
          TZVETELIN IORDANOV, CHET SWALINA, JONATHAN SKONE,
          SHARON HAMMES-SCHIFFER
     WASEDA UNIVERSITY:
          MASATO KOBAYASHI, TOMOKO AKAMA, HIROMI NAKAI
     UNIVERSITY OF NEBRASKA:
          PEIFENG SU, DEJUN SI, YALI WANG, HUI LI
     UNIVERSITY OF ZURICH:
          ROBERTO PEVERATI, KIM BALDRIDGE
     N. COPERNICUS UNIVERSITY AND JACKSON STATE UNIVERSITY:
          MARIA BARYSZ

 EXECUTION OF GAMESS BEGUN Mon Dec  5 12:59:05 2011

            ECHO OF THE FIRST FEW INPUT CARDS -
 INPUT CARD> $CONTRL SCFTYP=RHF RUNTYP=ENERGY COORD=ZMT UNITS=ANGS $END                     
 INPUT CARD> $BASIS GBASIS=N31 NGAUSS=6 $END                                                
 INPUT CARD> $DATA                                                                          
 INPUT CARD>cyclobutadiene                                                                  
 INPUT CARD>Dnh 2                                                                           
 INPUT CARD>                                                                                
 INPUT CARD>C                                                                               
 INPUT CARD>C      1   1.3274783                                                            
 INPUT CARD>C      2   1.5782333  1    90.0000000                                           
 INPUT CARD>C      3   1.3274783  2    90.0000000  1     0.0000000  0                       
 INPUT CARD>H      4   1.0680127  3   135.2766388  2   180.0000000  0                       
 INPUT CARD>H      3   1.0680127  2   134.7233612  1   180.0000000  0                       
 INPUT CARD>H      2   1.0680127  1   135.2766388  4   180.0000000  0                       
 INPUT CARD>H      1   1.0680127  4   134.7233612  3   180.0000000  0                       
 INPUT CARD> $END                                                                           
    1000000 WORDS OF MEMORY AVAILABLE

     BASIS OPTIONS
     -------------
     GBASIS=N31          IGAUSS=       6      POLAR=NONE    
     NDFUNC=       0     NFFUNC=       0     DIFFSP=       F
     NPFUNC=       0      DIFFS=       F     BASNAM=        


     RUN TITLE
     ---------
 cyclobutadiene                                                                  

 THE POINT GROUP OF THE MOLECULE IS DNH     
 THE ORDER OF THE PRINCIPAL AXIS IS     2

 YOUR FULLY SUBSTITUTED Z-MATRIX IS
 C   
 C      1   1.3274783
 C      2   1.5782333  1   90.0000
 C      3   1.3274783  2   90.0000  1    0.0000  0
 H      4   1.0680127  3  135.2766  2  180.0000  0
 H      3   1.0680127  2  134.7234  1  180.0000  0
 H      2   1.0680127  1  135.2766  4  180.0000  0
 H      1   1.0680127  4  134.7234  3  180.0000  0

 THE MOMENTS OF INERTIA ARE (AMU-ANGSTROM**2)
 IXX=    29.305   IYY=    68.763   IZZ=    39.459

 ATOM      ATOMIC                      COORDINATES (BOHR)
           CHARGE         X                   Y                   Z
 C           6.0     1.4912142408       -0.0000000000       -1.2542851208
 C           6.0    -1.4912142408        0.0000000000        1.2542851208
 C           6.0     1.4912142408       -0.0000000000        1.2542851208
 C           6.0    -1.4912142408        0.0000000000       -1.2542851208
 H           1.0    -2.9114263523        0.0000000000       -2.6882781780
 H           1.0     2.9114263523        0.0000000000        2.6882781780
 H           1.0    -2.9114263523        0.0000000000        2.6882781780
 H           1.0     2.9114263523        0.0000000000       -2.6882781780

          INTERNUCLEAR DISTANCES (ANGS.)
          ------------------------------

                1 C          2 C          3 C          4 C          5 H     

   1 C       0.0000000    2.0622849 *  1.3274783 *  1.5782333 *  2.4502438 *
   2 C       2.0622849 *  0.0000000    1.5782333 *  1.3274783 *  2.2175499 *
   3 C       1.3274783 *  1.5782333 *  0.0000000    2.0622849 *  3.1273905  
   4 C       1.5782333 *  1.3274783 *  2.0622849 *  0.0000000    1.0680127 *
   5 H       2.4502438 *  2.2175499 *  3.1273905    1.0680127 *  0.0000000  
   6 H       2.2175499 *  2.4502438 *  1.0680127 *  3.1273905    4.1939750  
   7 H       3.1273905    1.0680127 *  2.4502438 *  2.2175499 *  2.8451513 *
   8 H       1.0680127 *  3.1273905    2.2175499 *  2.4502438 *  3.0813212  

                6 H          7 H          8 H     

   1 C       2.2175499 *  3.1273905    1.0680127 *
   2 C       2.4502438 *  1.0680127 *  3.1273905  
   3 C       1.0680127 *  2.4502438 *  2.2175499 *
   4 C       3.1273905    2.2175499 *  2.4502438 *
   5 H       4.1939750    2.8451513 *  3.0813212  
   6 H       0.0000000    3.0813212    2.8451513 *
   7 H       3.0813212    0.0000000    4.1939750  
   8 H       2.8451513 *  4.1939750    0.0000000  

  * ... LESS THAN  3.000


     ATOMIC BASIS SET
     ----------------
 THE CONTRACTED PRIMITIVE FUNCTIONS HAVE BEEN UNNORMALIZED
 THE CONTRACTED BASIS FUNCTIONS ARE NOW NORMALIZED TO UNITY

  SHELL TYPE  PRIMITIVE        EXPONENT          CONTRACTION COEFFICIENT(S)

 C         

     10   S       1          3047.5248800    0.001834737132
     10   S       2           457.3695180    0.014037322813
     10   S       3           103.9486850    0.068842622264
     10   S       4            29.2101553    0.232184443216
     10   S       5             9.2866630    0.467941348435
     10   S       6             3.1639270    0.362311985337

     11   L       7             7.8682723   -0.119332419775    0.068999066591
     11   L       8             1.8812885   -0.160854151696    0.316423960957
     11   L       9             0.5442493    1.143456437840    0.744308290898

     12   L      10             0.1687145    1.000000000000    1.000000000000

 H         

     19   S      11            18.7311370    0.033494604338
     19   S      12             2.8253944    0.234726953484
     19   S      13             0.6401217    0.813757326146

     20   S      14             0.1612778    1.000000000000

 TOTAL NUMBER OF BASIS SET SHELLS             =   20
 NUMBER OF CARTESIAN GAUSSIAN BASIS FUNCTIONS =   44
 NUMBER OF ELECTRONS                          =   28
 CHARGE OF MOLECULE                           =    0
 SPIN MULTIPLICITY                            =    1
 NUMBER OF OCCUPIED ORBITALS (ALPHA)          =   14
 NUMBER OF OCCUPIED ORBITALS (BETA )          =   14
 TOTAL NUMBER OF ATOMS                        =    8
 THE NUCLEAR REPULSION ENERGY IS       99.1487167538

     $CONTRL OPTIONS
     ---------------
 SCFTYP=RHF          RUNTYP=ENERGY       EXETYP=RUN     
 MPLEVL=       0     CITYP =NONE         CCTYP =NONE         VBTYP =NONE    
 DFTTYP=NONE         TDDFT =NONE    
 MULT  =       1     ICHARG=       0     NZVAR =       0     COORD =ZMT     
 PP    =NONE         RELWFN=NONE         LOCAL =NONE         NUMGRD=       F
 ISPHER=      -1     NOSYM =       0     MAXIT =      30     UNITS =ANGS    
 PLTORB=       F     MOLPLT=       F     AIMPAC=       F     FRIEND=        
 NPRINT=       7     IREST =       0     GEOM  =INPUT   
 NORMF =       0     NORMP =       0     ITOL  =      20     ICUT  =       9
 INTTYP=BEST         GRDTYP=BEST         QMTTOL= 1.0E-06

     $SYSTEM OPTIONS
     ---------------
  REPLICATED MEMORY=     1000000 WORDS (ON EVERY NODE).
 DISTRIBUTED MEMDDI=           0 MILLION WORDS IN AGGREGATE,
 MEMDDI DISTRIBUTED OVER   1 PROCESSORS IS           0 WORDS/PROCESSOR.
 TOTAL MEMORY REQUESTED ON EACH PROCESSOR=     1000000 WORDS.
 TIMLIM=      525600.00 MINUTES, OR     365.0 DAYS.
 PARALL= F  BALTYP=  DLB     KDIAG=    0  COREFL= F
 MXSEQ2=     300 MXSEQ3=     150

          ----------------
          PROPERTIES INPUT
          ----------------

     MOMENTS            FIELD           POTENTIAL          DENSITY
 IEMOM =       1   IEFLD =       0   IEPOT =       0   IEDEN =       0
 WHERE =COMASS     WHERE =NUCLEI     WHERE =NUCLEI     WHERE =NUCLEI  
 OUTPUT=BOTH       OUTPUT=BOTH       OUTPUT=BOTH       OUTPUT=BOTH    
 IEMINT=       0   IEFINT=       0                     IEDINT=       0
                                                       MORB  =       0
          EXTRAPOLATION IN EFFECT
          SOSCF IN EFFECT
 ORBITAL PRINTING OPTION: NPREO=     1    44     2     1

     -------------------------------
     INTEGRAL TRANSFORMATION OPTIONS
     -------------------------------
     NWORD  =            0
     CUTOFF = 1.0E-09     MPTRAN =       0
     DIRTRF =       F     AOINTS =DUP     

          ----------------------
          INTEGRAL INPUT OPTIONS
          ----------------------
 NOPK  =       1 NORDER=       0 SCHWRZ=       T

   --- ENCODED Z MATRIX ---
 COORD  TYPE   I   J   K   L   M   N
    1      1    2   4
    2      1    3   2
    3      2    3   2   4
    4      1    1   3
    5      2    1   3   2
    6      3    1   3   2   4
    7      1    8   1
    8      2    8   1   3
    9      3    8   1   3   2
   10      1    6   3
   11      2    6   3   2
   12      3    6   3   2   4
   13      1    7   2
   14      2    7   2   4
   15      3    7   2   4   1
   16      1    5   4
   17      2    5   4   1
   18      3    5   4   1   3

 THE DETERMINANT OF THE G MATRIX IS 10**(   -11)

     ------------------------------------------
     THE POINT GROUP IS DNH, NAXIS= 2, ORDER= 8
     ------------------------------------------

     DIMENSIONS OF THE SYMMETRY SUBSPACES ARE
 AG  =    9     AU  =    2     B3U =    9     B3G =    2     B1G =    2
 B1U =    9     B2U =    2     B2G =    9

 ..... DONE SETTING UP THE RUN .....
 STEP CPU TIME =     0.00 TOTAL CPU TIME =        0.0 (    0.0 MIN)
 TOTAL WALL CLOCK TIME=        0.0 SECONDS, CPU UTILIZATION IS   0.00%

          ********************
          1 ELECTRON INTEGRALS
          ********************
 ...... END OF ONE-ELECTRON INTEGRALS ......
 STEP CPU TIME =     0.01 TOTAL CPU TIME =        0.0 (    0.0 MIN)
 TOTAL WALL CLOCK TIME=        0.0 SECONDS, CPU UTILIZATION IS  50.00%

          -------------
          GUESS OPTIONS
          -------------
          GUESS =HUCKEL            NORB  =       0          NORDER=       0
          MIX   =       F          PRTMO =       F          PUNMO =       F
          TOLZ  = 1.0E-08          TOLE  = 1.0E-05
          SYMDEN=       F          PURIFY=       F

 INITIAL GUESS ORBITALS GENERATED BY HUCKEL   ROUTINE.
 HUCKEL GUESS REQUIRES     22168 WORDS.

 SYMMETRIES FOR INITIAL GUESS ORBITALS FOLLOW.   BOTH SET(S).
    14 ORBITALS ARE OCCUPIED (    4 CORE ORBITALS).
     5=AG       6=B3U      7=B1U      8=AG       9=B2G     10=B2U     11=AG  
    12=B3U     13=B1U     14=B1G     15=B3G     16=AU      17=B2G     18=B3U 
    19=B1U     20=AG      21=AG      22=AG      23=AG      24=AG  
 ...... END OF INITIAL ORBITAL SELECTION ......
 STEP CPU TIME =     0.00 TOTAL CPU TIME =        0.0 (    0.0 MIN)
 TOTAL WALL CLOCK TIME=        0.0 SECONDS, CPU UTILIZATION IS  50.00%

                    ----------------------
                    AO INTEGRAL TECHNOLOGY
                    ----------------------
     S,P,L SHELL ROTATED AXIS INTEGRALS, REPROGRAMMED BY
        KAZUYA ISHIMURA (IMS) AND JOSE SIERRA (SYNSTAR).
     S,P,D,L SHELL ROTATED AXIS INTEGRALS PROGRAMMED BY
        KAZUYA ISHIMURA (INSTITUTE FOR MOLECULAR SCIENCE).
     S,P,D,F,G SHELL TO TOTAL QUARTET ANGULAR MOMENTUM SUM 5,
        ERIC PROGRAM BY GRAHAM FLETCHER (ELORET AND NASA ADVANCED
        SUPERCOMPUTING DIVISION, AMES RESEARCH CENTER).
     S,P,D,F,G,L SHELL GENERAL RYS QUADRATURE PROGRAMMED BY
        MICHEL DUPUIS (PACIFIC NORTHWEST NATIONAL LABORATORY).

          --------------------
          2 ELECTRON INTEGRALS
          --------------------

 THE -PK- OPTION IS OFF, THE INTEGRALS ARE NOT IN SUPERMATRIX FORM.
 STORING   15000 INTEGRALS/RECORD ON DISK, USING 12 BYTES/INTEGRAL.
 TWO ELECTRON INTEGRAL EVALUATION REQUIRES   89566 WORDS OF MEMORY.
 SCHWARZ INEQUALITY OVERHEAD:       990 INTEGRALS, T=        0.01
 II,JST,KST,LST =  1  1  1  1 NREC =         1 INTLOC =    1
 II,JST,KST,LST =  2  1  1  1 NREC =         1 INTLOC =    1
 II,JST,KST,LST =  3  1  1  1 NREC =         1 INTLOC =    1
 II,JST,KST,LST =  4  1  1  1 NREC =         1 INTLOC =    1
 II,JST,KST,LST =  5  1  1  1 NREC =         1 INTLOC =    1
 II,JST,KST,LST =  6  1  1  1 NREC =         1 INTLOC =    1
 II,JST,KST,LST =  7  1  1  1 NREC =         1 INTLOC =    1
 II,JST,KST,LST =  8  1  1  1 NREC =         1 INTLOC =    1
 II,JST,KST,LST =  9  1  1  1 NREC =         1 INTLOC =    1
 II,JST,KST,LST = 10  1  1  1 NREC =         1 INTLOC =    1
 II,JST,KST,LST = 11  1  1  1 NREC =         1 INTLOC =    9
 II,JST,KST,LST = 12  1  1  1 NREC =         1 INTLOC = 3274
 II,JST,KST,LST = 13  1  1  1 NREC =         2 INTLOC =14079
 II,JST,KST,LST = 14  1  1  1 NREC =         2 INTLOC =14079
 II,JST,KST,LST = 15  1  1  1 NREC =         2 INTLOC =14079
 II,JST,KST,LST = 16  1  1  1 NREC =         2 INTLOC =14079
 II,JST,KST,LST = 17  1  1  1 NREC =         2 INTLOC =14079
 II,JST,KST,LST = 18  1  1  1 NREC =         2 INTLOC =14079
 II,JST,KST,LST = 19  1  1  1 NREC =         2 INTLOC =14079
 II,JST,KST,LST = 20  1  1  1 NREC =         4 INTLOC =  716
 SCHWARZ INEQUALITY TEST SKIPPED         333 INTEGRAL BLOCKS.
 TOTAL NUMBER OF NONZERO TWO-ELECTRON INTEGRALS =               69684
          5 INTEGRAL RECORDS WERE STORED ON DISK FILE  8.
  ...... END OF TWO-ELECTRON INTEGRALS .....
 STEP CPU TIME =     0.05 TOTAL CPU TIME =        0.1 (    0.0 MIN)
 TOTAL WALL CLOCK TIME=        0.1 SECONDS, CPU UTILIZATION IS  85.71%

          --------------------------
                 RHF SCF CALCULATION
          --------------------------

     NUCLEAR ENERGY =        99.1487167538
     MAXIT =   30     NPUNCH=    2
     EXTRAP=T  DAMP=F  SHIFT=F  RSTRCT=F  DIIS=F  DEM=F  SOSCF=T
     DENSITY MATRIX CONV=  1.00E-05
     SOSCF WILL OPTIMIZE     420 ORBITAL ROTATIONS, SOGTOL=   0.250
     MEMORY REQUIRED FOR RHF ITERS=     45848 WORDS.

 ITER EX DEM     TOTAL ENERGY        E CHANGE  DENSITY CHANGE     ORB. GRAD
   1  0  0     -153.2566114318  -153.2566114318   0.215474262   0.000000000
          ---------------START SECOND ORDER SCF---------------
   2  1  0     -153.5559649368    -0.2993535049   0.055814456   0.061930077
   3  2  0     -153.5734220210    -0.0174570842   0.015284202   0.012451806
   4  3  0     -153.5752695479    -0.0018475269   0.001384150   0.001359111
   5  4  0     -153.5752983845    -0.0000288366   0.000564881   0.000307311
   6  5  0     -153.5752998549    -0.0000014704   0.000139222   0.000082696
   7  6  0     -153.5752999466    -0.0000000917   0.000045825   0.000018160
   8  7  0     -153.5752999509    -0.0000000044   0.000007929   0.000002768
   9  8  0     -153.5752999511    -0.0000000002   0.000000971   0.000000405

          -----------------
          DENSITY CONVERGED
          -----------------
     TIME TO FORM FOCK OPERATORS=       0.0 SECONDS (       0.0 SEC/ITER)
     TIME TO SOLVE SCF EQUATIONS=       0.0 SECONDS (       0.0 SEC/ITER)

 FINAL RHF ENERGY IS     -153.5752999511 AFTER   9 ITERATIONS

          ------------
          EIGENVECTORS
          ------------

                      1          2          3          4          5
                  -11.2443   -11.2439   -11.2426   -11.2422    -1.1686
                     AG         B3U        B1U        B2G        AG  
    1  C  1  S    0.497921   0.497978   0.498229   0.498343  -0.110930
    2  C  1  S    0.011620   0.012240   0.012637   0.013675   0.217745
    3  C  1  X   -0.000141  -0.000240  -0.000271  -0.000364  -0.064772
    4  C  1  Y    0.000000   0.000000  -0.000000   0.000000  -0.000000
    5  C  1  Z    0.000119   0.000192   0.000327   0.000436   0.096971
    6  C  1  S   -0.003092  -0.006423  -0.009733  -0.023888   0.123252
    7  C  1  X    0.000037   0.001904   0.000518   0.006738  -0.011560
    8  C  1  Y    0.000000   0.000000  -0.000000   0.000000  -0.000000
    9  C  1  Z   -0.000106  -0.000241  -0.003517  -0.008097   0.009785
   10  C  2  S    0.497921  -0.497978  -0.498229   0.498343  -0.110930
   11  C  2  S    0.011620  -0.012240  -0.012637   0.013675   0.217745
   12  C  2  X    0.000141  -0.000240  -0.000271   0.000364   0.064772
   13  C  2  Y    0.000000   0.000000  -0.000000   0.000000  -0.000000
   14  C  2  Z   -0.000119   0.000192   0.000327  -0.000436  -0.096971
   15  C  2  S   -0.003092   0.006423   0.009733  -0.023888   0.123252
   16  C  2  X   -0.000037   0.001904   0.000518  -0.006738   0.011560
   17  C  2  Y    0.000000   0.000000  -0.000000   0.000000  -0.000000
   18  C  2  Z    0.000106  -0.000241  -0.003517   0.008097  -0.009785
   19  C  3  S    0.497921   0.497978  -0.498229  -0.498343  -0.110930
   20  C  3  S    0.011620   0.012240  -0.012637  -0.013675   0.217745
   21  C  3  X   -0.000141  -0.000240   0.000271   0.000364  -0.064772
   22  C  3  Y    0.000000   0.000000  -0.000000   0.000000  -0.000000
   23  C  3  Z   -0.000119  -0.000192   0.000327   0.000436  -0.096971
   24  C  3  S   -0.003092  -0.006423   0.009733   0.023888   0.123252
   25  C  3  X    0.000037   0.001904  -0.000518  -0.006738  -0.011560
   26  C  3  Y    0.000000   0.000000  -0.000000   0.000000  -0.000000
   27  C  3  Z    0.000106   0.000241  -0.003517  -0.008097  -0.009785
   28  C  4  S    0.497921  -0.497978   0.498229  -0.498343  -0.110930
   29  C  4  S    0.011620  -0.012240   0.012637  -0.013675   0.217745
   30  C  4  X    0.000141  -0.000240   0.000271  -0.000364   0.064772
   31  C  4  Y    0.000000   0.000000  -0.000000   0.000000  -0.000000
   32  C  4  Z    0.000119  -0.000192   0.000327  -0.000436   0.096971
   33  C  4  S   -0.003092   0.006423  -0.009733   0.023888   0.123252
   34  C  4  X   -0.000037   0.001904  -0.000518   0.006738   0.011560
   35  C  4  Y    0.000000   0.000000  -0.000000   0.000000  -0.000000
   36  C  4  Z   -0.000106   0.000241  -0.003517   0.008097   0.009785
   37  H  5  S   -0.000339   0.000204  -0.000222   0.000203   0.037592
   38  H  5  S    0.000906  -0.000642   0.000338   0.001276   0.004198
   39  H  6  S   -0.000339  -0.000204   0.000222   0.000203   0.037592
   40  H  6  S    0.000906   0.000642  -0.000338   0.001276   0.004198
   41  H  7  S   -0.000339   0.000204   0.000222  -0.000203   0.037592
   42  H  7  S    0.000906  -0.000642  -0.000338  -0.001276   0.004198
   43  H  8  S   -0.000339  -0.000204  -0.000222  -0.000203   0.037592
   44  H  8  S    0.000906   0.000642   0.000338  -0.001276   0.004198

                      6          7          8          9         10
                   -0.9239    -0.8196    -0.7002    -0.6986    -0.5608
                     B3U        B1U        AG         B2G        B3U 
    1  C  1  S   -0.108211  -0.093959  -0.021643   0.072854  -0.016816
    2  C  1  S    0.218867   0.191288   0.044314  -0.154142   0.034036
    3  C  1  X    0.082709  -0.032106   0.174770  -0.101808  -0.071126
    4  C  1  Y    0.000000   0.000000   0.000000  -0.000000   0.000000
    5  C  1  Z    0.100547  -0.116879  -0.166267   0.118738   0.285227
    6  C  1  S    0.189809   0.198307   0.073905  -0.013096   0.039178
    7  C  1  X    0.020601  -0.008982   0.060785  -0.118390  -0.044748
    8  C  1  Y    0.000000   0.000000   0.000000  -0.000000   0.000000
    9  C  1  Z   -0.002383  -0.029171  -0.056694   0.127151   0.110096
   10  C  2  S    0.108211   0.093959  -0.021643   0.072854   0.016816
   11  C  2  S   -0.218867  -0.191288   0.044314  -0.154142  -0.034036
   12  C  2  X    0.082709  -0.032106  -0.174770   0.101808  -0.071126
   13  C  2  Y    0.000000   0.000000   0.000000  -0.000000   0.000000
   14  C  2  Z    0.100547  -0.116879   0.166267  -0.118738   0.285227
   15  C  2  S   -0.189809  -0.198307   0.073905  -0.013096  -0.039178
   16  C  2  X    0.020601  -0.008982  -0.060785   0.118390  -0.044748
   17  C  2  Y    0.000000   0.000000   0.000000  -0.000000   0.000000
   18  C  2  Z   -0.002383  -0.029171   0.056694  -0.127151   0.110096
   19  C  3  S   -0.108211   0.093959  -0.021643  -0.072854  -0.016816
   20  C  3  S    0.218867  -0.191288   0.044314   0.154142   0.034036
   21  C  3  X    0.082709   0.032106   0.174770   0.101808  -0.071126
   22  C  3  Y    0.000000   0.000000   0.000000  -0.000000   0.000000
   23  C  3  Z   -0.100547  -0.116879   0.166267   0.118738  -0.285227
   24  C  3  S    0.189809  -0.198307   0.073905   0.013096   0.039178
   25  C  3  X    0.020601   0.008982   0.060785   0.118390  -0.044748
   26  C  3  Y    0.000000   0.000000   0.000000  -0.000000   0.000000
   27  C  3  Z    0.002383  -0.029171   0.056694   0.127151  -0.110096
   28  C  4  S    0.108211  -0.093959  -0.021643  -0.072854   0.016816
   29  C  4  S   -0.218867   0.191288   0.044314   0.154142  -0.034036
   30  C  4  X    0.082709   0.032106  -0.174770  -0.101808  -0.071126
   31  C  4  Y    0.000000   0.000000   0.000000  -0.000000   0.000000
   32  C  4  Z   -0.100547  -0.116879  -0.166267  -0.118738  -0.285227
   33  C  4  S   -0.189809   0.198307   0.073905   0.013096  -0.039178
   34  C  4  X    0.020601   0.008982  -0.060785  -0.118390  -0.044748
   35  C  4  Y    0.000000   0.000000   0.000000  -0.000000   0.000000
   36  C  4  Z    0.002383  -0.029171  -0.056694  -0.127151  -0.110096
   37  H  5  S   -0.081349   0.114716   0.146500   0.162005   0.147197
   38  H  5  S   -0.015832   0.049515   0.083327   0.051874   0.111292
   39  H  6  S    0.081349  -0.114716   0.146500   0.162005  -0.147197
   40  H  6  S    0.015832  -0.049515   0.083327   0.051874  -0.111292
   41  H  7  S   -0.081349  -0.114716   0.146500  -0.162005   0.147197
   42  H  7  S   -0.015832  -0.049515   0.083327  -0.051874   0.111292
   43  H  8  S    0.081349   0.114716   0.146500  -0.162005  -0.147197
   44  H  8  S    0.015832   0.049515   0.083327  -0.051874  -0.111292

                     11         12         13         14         15
                   -0.5350    -0.4720    -0.4463    -0.2784     0.1007
                     AG         B2U        B1U        B1G        B3G 
    1  C  1  S   -0.001111  -0.000000   0.028124  -0.000000   0.000000
    2  C  1  S    0.012825  -0.000000  -0.055510  -0.000000   0.000000
    3  C  1  X    0.216325  -0.000000   0.281996  -0.000000   0.000000
    4  C  1  Y    0.000000   0.262443  -0.000000   0.292693   0.250386
    5  C  1  Z    0.236367  -0.000000  -0.025187  -0.000000   0.000000
    6  C  1  S   -0.024557  -0.000000  -0.152126  -0.000000   0.000000
    7  C  1  X    0.104149  -0.000000   0.192738  -0.000000   0.000000
    8  C  1  Y    0.000000   0.173670  -0.000000   0.281568   0.415214
    9  C  1  Z    0.090580  -0.000000  -0.053875  -0.000000   0.000000
   10  C  2  S   -0.001111  -0.000000  -0.028124  -0.000000   0.000000
   11  C  2  S    0.012825  -0.000000   0.055510  -0.000000   0.000000
   12  C  2  X   -0.216325  -0.000000   0.281996  -0.000000   0.000000
   13  C  2  Y    0.000000   0.262443  -0.000000  -0.292693  -0.250386
   14  C  2  Z   -0.236367  -0.000000  -0.025187  -0.000000   0.000000
   15  C  2  S   -0.024557  -0.000000   0.152126  -0.000000   0.000000
   16  C  2  X   -0.104149  -0.000000   0.192738  -0.000000   0.000000
   17  C  2  Y    0.000000   0.173670  -0.000000  -0.281568  -0.415214
   18  C  2  Z   -0.090580  -0.000000  -0.053875  -0.000000   0.000000
   19  C  3  S   -0.001111  -0.000000  -0.028124  -0.000000   0.000000
   20  C  3  S    0.012825  -0.000000   0.055510  -0.000000   0.000000
   21  C  3  X    0.216325  -0.000000  -0.281996  -0.000000   0.000000
   22  C  3  Y    0.000000   0.262443  -0.000000   0.292693  -0.250386
   23  C  3  Z   -0.236367  -0.000000  -0.025187  -0.000000   0.000000
   24  C  3  S   -0.024557  -0.000000   0.152126  -0.000000   0.000000
   25  C  3  X    0.104149  -0.000000  -0.192738  -0.000000   0.000000
   26  C  3  Y    0.000000   0.173670  -0.000000   0.281568  -0.415214
   27  C  3  Z   -0.090580  -0.000000  -0.053875  -0.000000   0.000000
   28  C  4  S   -0.001111  -0.000000   0.028124  -0.000000   0.000000
   29  C  4  S    0.012825  -0.000000  -0.055510  -0.000000   0.000000
   30  C  4  X   -0.216325  -0.000000  -0.281996  -0.000000   0.000000
   31  C  4  Y    0.000000   0.262443  -0.000000  -0.292693   0.250386
   32  C  4  Z    0.236367  -0.000000  -0.025187  -0.000000   0.000000
   33  C  4  S   -0.024557  -0.000000  -0.152126  -0.000000   0.000000
   34  C  4  X   -0.104149  -0.000000  -0.192738  -0.000000   0.000000
   35  C  4  Y    0.000000   0.173670  -0.000000  -0.281568   0.415214
   36  C  4  Z    0.090580  -0.000000  -0.053875  -0.000000   0.000000
   37  H  5  S   -0.010967  -0.000000   0.134169  -0.000000   0.000000
   38  H  5  S   -0.016584  -0.000000   0.102308  -0.000000   0.000000
   39  H  6  S   -0.010967  -0.000000  -0.134169  -0.000000   0.000000
   40  H  6  S   -0.016584  -0.000000  -0.102308  -0.000000   0.000000
   41  H  7  S   -0.010967  -0.000000  -0.134169  -0.000000   0.000000
   42  H  7  S   -0.016584  -0.000000  -0.102308  -0.000000   0.000000
   43  H  8  S   -0.010967  -0.000000   0.134169  -0.000000   0.000000
   44  H  8  S   -0.016584  -0.000000   0.102308  -0.000000   0.000000

                     16         17         18         19         20
                    0.2735     0.2739     0.2760     0.2894     0.3212
                     B3U        AU         AG         B2G        B1U 
    1  C  1  S   -0.075456  -0.000000   0.038170  -0.058907  -0.059961
    2  C  1  S    0.095688  -0.000000  -0.029140   0.167174   0.067864
    3  C  1  X   -0.135861  -0.000000  -0.110000   0.003724   0.118425
    4  C  1  Y   -0.000000   0.274564  -0.000000  -0.000000   0.000000
    5  C  1  Z   -0.101921  -0.000000   0.108485  -0.077532  -0.033231
    6  C  1  S    1.125776  -0.000000  -0.847682  -0.645800   1.248539
    7  C  1  X   -0.412891  -0.000000  -0.305619   1.067703   0.683958
    8  C  1  Y   -0.000000   0.689119  -0.000000  -0.000000   0.000000
    9  C  1  Z   -0.445091  -0.000000   0.351961  -1.287094  -0.061465
   10  C  2  S    0.075456  -0.000000   0.038170  -0.058907   0.059961
   11  C  2  S   -0.095688  -0.000000  -0.029140   0.167174  -0.067864
   12  C  2  X   -0.135861  -0.000000   0.110000  -0.003724   0.118425
   13  C  2  Y   -0.000000   0.274564  -0.000000  -0.000000   0.000000
   14  C  2  Z   -0.101921  -0.000000  -0.108485   0.077532  -0.033231
   15  C  2  S   -1.125776  -0.000000  -0.847682  -0.645800  -1.248539
   16  C  2  X   -0.412891  -0.000000   0.305619  -1.067703   0.683958
   17  C  2  Y   -0.000000   0.689119  -0.000000  -0.000000   0.000000
   18  C  2  Z   -0.445091  -0.000000  -0.351961   1.287094  -0.061465
   19  C  3  S   -0.075456  -0.000000   0.038170   0.058907   0.059961
   20  C  3  S    0.095688  -0.000000  -0.029140  -0.167174  -0.067864
   21  C  3  X   -0.135861  -0.000000  -0.110000  -0.003724  -0.118425
   22  C  3  Y   -0.000000  -0.274564  -0.000000  -0.000000   0.000000
   23  C  3  Z    0.101921  -0.000000  -0.108485  -0.077532  -0.033231
   24  C  3  S    1.125776  -0.000000  -0.847682   0.645800  -1.248539
   25  C  3  X   -0.412891  -0.000000  -0.305619  -1.067703  -0.683958
   26  C  3  Y   -0.000000  -0.689119  -0.000000  -0.000000   0.000000
   27  C  3  Z    0.445091  -0.000000  -0.351961  -1.287094  -0.061465
   28  C  4  S    0.075456  -0.000000   0.038170   0.058907  -0.059961
   29  C  4  S   -0.095688  -0.000000  -0.029140  -0.167174   0.067864
   30  C  4  X   -0.135861  -0.000000   0.110000   0.003724  -0.118425
   31  C  4  Y   -0.000000  -0.274564  -0.000000  -0.000000   0.000000
   32  C  4  Z    0.101921  -0.000000   0.108485   0.077532  -0.033231
   33  C  4  S   -1.125776  -0.000000  -0.847682   0.645800   1.248539
   34  C  4  X   -0.412891  -0.000000   0.305619   1.067703  -0.683958
   35  C  4  Y   -0.000000  -0.689119  -0.000000  -0.000000   0.000000
   36  C  4  Z    0.445091  -0.000000   0.351961   1.287094  -0.061465
   37  H  5  S   -0.008524  -0.000000   0.045525   0.034288   0.026412
   38  H  5  S    0.576764  -0.000000   1.099511   1.545722  -1.176862
   39  H  6  S    0.008524  -0.000000   0.045525   0.034288  -0.026412
   40  H  6  S   -0.576764  -0.000000   1.099511   1.545722   1.176862
   41  H  7  S   -0.008524  -0.000000   0.045525  -0.034288  -0.026412
   42  H  7  S    0.576764  -0.000000   1.099511  -1.545722   1.176862
   43  H  8  S    0.008524  -0.000000   0.045525  -0.034288   0.026412
   44  H  8  S   -0.576764  -0.000000   1.099511  -1.545722  -1.176862

                     21         22         23         24         25
                    0.3396     0.4329     0.4899     0.6765     0.7266
                     B3U        B1U        B2G        AG         B2G 
    1  C  1  S    0.011563  -0.052004   0.018079  -0.008789  -0.129971
    2  C  1  S   -0.004057   0.035586  -0.009967  -0.149428   0.030723
    3  C  1  X    0.194167  -0.093299   0.228733  -0.235549  -0.117149
    4  C  1  Y   -0.000000  -0.000000   0.000000   0.000000   0.000000
    5  C  1  Z   -0.109513   0.115643   0.133519  -0.373835   0.053434
    6  C  1  S    0.138073   1.652986  -0.178770  -0.019683   5.970515
    7  C  1  X    0.956981  -0.290923   1.621823   0.223663  -2.318836
    8  C  1  Y   -0.000000  -0.000000   0.000000   0.000000   0.000000
    9  C  1  Z   -0.462721   1.803493   0.697429   0.540261   3.847852
   10  C  2  S   -0.011563   0.052004   0.018079  -0.008789  -0.129971
   11  C  2  S    0.004057  -0.035586  -0.009967  -0.149428   0.030723
   12  C  2  X    0.194167  -0.093299  -0.228733   0.235549   0.117149
   13  C  2  Y   -0.000000  -0.000000   0.000000   0.000000   0.000000
   14  C  2  Z   -0.109513   0.115643  -0.133519   0.373835  -0.053434
   15  C  2  S   -0.138073  -1.652986  -0.178770  -0.019683   5.970515
   16  C  2  X    0.956981  -0.290923  -1.621823  -0.223663   2.318836
   17  C  2  Y   -0.000000  -0.000000   0.000000   0.000000   0.000000
   18  C  2  Z   -0.462721   1.803493  -0.697429  -0.540261  -3.847852
   19  C  3  S    0.011563   0.052004  -0.018079  -0.008789   0.129971
   20  C  3  S   -0.004057  -0.035586   0.009967  -0.149428  -0.030723
   21  C  3  X    0.194167   0.093299  -0.228733  -0.235549   0.117149
   22  C  3  Y   -0.000000  -0.000000   0.000000   0.000000   0.000000
   23  C  3  Z    0.109513   0.115643   0.133519   0.373835   0.053434
   24  C  3  S    0.138073  -1.652986   0.178770  -0.019683  -5.970515
   25  C  3  X    0.956981   0.290923  -1.621823   0.223663   2.318836
   26  C  3  Y   -0.000000  -0.000000   0.000000   0.000000   0.000000
   27  C  3  Z    0.462721   1.803493   0.697429  -0.540261   3.847852
   28  C  4  S   -0.011563  -0.052004  -0.018079  -0.008789   0.129971
   29  C  4  S    0.004057   0.035586   0.009967  -0.149428  -0.030723
   30  C  4  X    0.194167   0.093299   0.228733   0.235549  -0.117149
   31  C  4  Y   -0.000000  -0.000000   0.000000   0.000000   0.000000
   32  C  4  Z    0.109513   0.115643  -0.133519  -0.373835  -0.053434
   33  C  4  S   -0.138073   1.652986   0.178770  -0.019683  -5.970515
   34  C  4  X    0.956981   0.290923   1.621823  -0.223663  -2.318836
   35  C  4  Y   -0.000000  -0.000000   0.000000   0.000000   0.000000
   36  C  4  Z    0.462721   1.803493  -0.697429   0.540261  -3.847852
   37  H  5  S    0.000268   0.014006  -0.051237   0.027470   0.205937
   38  H  5  S    1.224351   0.892908   0.447837   0.070822  -1.697460
   39  H  6  S   -0.000268  -0.014006  -0.051237   0.027470   0.205937
   40  H  6  S   -1.224351  -0.892908   0.447837   0.070822  -1.697460
   41  H  7  S    0.000268  -0.014006   0.051237   0.027470  -0.205937
   42  H  7  S    1.224351  -0.892908  -0.447837   0.070822   1.697460
   43  H  8  S   -0.000268   0.014006   0.051237   0.027470  -0.205937
   44  H  8  S   -1.224351   0.892908  -0.447837   0.070822   1.697460

                     26         27         28         29         30
                    0.7410     0.7650     0.7863     0.8222     0.8750
                     AG         B3U        B2U        B1G        B3G 
    1  C  1  S    0.001880   0.032468   0.000000   0.000000  -0.000000
    2  C  1  S   -0.578114   0.174443   0.000000   0.000000  -0.000000
    3  C  1  X   -0.037244   0.407755   0.000000   0.000000  -0.000000
    4  C  1  Y   -0.000000  -0.000000   0.538439  -0.533201  -0.576213
    5  C  1  Z    0.066497   0.256212   0.000000   0.000000  -0.000000
    6  C  1  S    0.756054  -0.055264   0.000000   0.000000  -0.000000
    7  C  1  X    0.222362  -0.407445   0.000000   0.000000  -0.000000
    8  C  1  Y   -0.000000  -0.000000  -0.390025   0.621997   0.655571
    9  C  1  Z   -0.236186  -0.282189   0.000000   0.000000  -0.000000
   10  C  2  S    0.001880  -0.032468   0.000000   0.000000  -0.000000
   11  C  2  S   -0.578114  -0.174443   0.000000   0.000000  -0.000000
   12  C  2  X    0.037244   0.407755   0.000000   0.000000  -0.000000
   13  C  2  Y   -0.000000  -0.000000   0.538439   0.533201   0.576213
   14  C  2  Z   -0.066497   0.256212   0.000000   0.000000  -0.000000
   15  C  2  S    0.756054   0.055264   0.000000   0.000000  -0.000000
   16  C  2  X   -0.222362  -0.407445   0.000000   0.000000  -0.000000
   17  C  2  Y   -0.000000  -0.000000  -0.390025  -0.621997  -0.655571
   18  C  2  Z    0.236186  -0.282189   0.000000   0.000000  -0.000000
   19  C  3  S    0.001880   0.032468   0.000000   0.000000  -0.000000
   20  C  3  S   -0.578114   0.174443   0.000000   0.000000  -0.000000
   21  C  3  X   -0.037244   0.407755   0.000000   0.000000  -0.000000
   22  C  3  Y   -0.000000  -0.000000   0.538439  -0.533201   0.576213
   23  C  3  Z   -0.066497  -0.256212   0.000000   0.000000  -0.000000
   24  C  3  S    0.756054  -0.055264   0.000000   0.000000  -0.000000
   25  C  3  X    0.222362  -0.407445   0.000000   0.000000  -0.000000
   26  C  3  Y   -0.000000  -0.000000  -0.390025   0.621997  -0.655571
   27  C  3  Z    0.236186   0.282189   0.000000   0.000000  -0.000000
   28  C  4  S    0.001880  -0.032468   0.000000   0.000000  -0.000000
   29  C  4  S   -0.578114  -0.174443   0.000000   0.000000  -0.000000
   30  C  4  X    0.037244   0.407755   0.000000   0.000000  -0.000000
   31  C  4  Y   -0.000000  -0.000000   0.538439   0.533201  -0.576213
   32  C  4  Z    0.066497  -0.256212   0.000000   0.000000  -0.000000
   33  C  4  S    0.756054   0.055264   0.000000   0.000000  -0.000000
   34  C  4  X   -0.222362  -0.407445   0.000000   0.000000  -0.000000
   35  C  4  Y   -0.000000  -0.000000  -0.390025  -0.621997   0.655571
   36  C  4  Z   -0.236186   0.282189   0.000000   0.000000  -0.000000
   37  H  5  S   -0.395212  -0.257768   0.000000   0.000000  -0.000000
   38  H  5  S   -0.095938   0.047336   0.000000   0.000000  -0.000000
   39  H  6  S   -0.395212   0.257768   0.000000   0.000000  -0.000000
   40  H  6  S   -0.095938  -0.047336   0.000000   0.000000  -0.000000
   41  H  7  S   -0.395212  -0.257768   0.000000   0.000000  -0.000000
   42  H  7  S   -0.095938   0.047336   0.000000   0.000000  -0.000000
   43  H  8  S   -0.395212   0.257768   0.000000   0.000000  -0.000000
   44  H  8  S   -0.095938  -0.047336   0.000000   0.000000  -0.000000

                     31         32         33         34         35
                    0.9164     0.9345     1.0368     1.0610     1.0782
                     B1U        AU         B3U        AG         B2G 
    1  C  1  S   -0.048785   0.000000   0.046598   0.012233   0.025782
    2  C  1  S   -0.214334   0.000000   0.479242   0.523298  -0.022687
    3  C  1  X    0.263470   0.000000  -0.421684  -0.470002  -0.607240
    4  C  1  Y   -0.000000  -0.582019   0.000000  -0.000000  -0.000000
    5  C  1  Z    0.436380   0.000000   0.270456   0.193749  -0.216156
    6  C  1  S    0.826813   0.000000  -1.033391   0.286740  -1.905744
    7  C  1  X   -0.059201   0.000000   1.665038   0.689346   2.696008
    8  C  1  Y   -0.000000   1.052643   0.000000  -0.000000  -0.000000
    9  C  1  Z    0.009701   0.000000  -0.951622  -0.549124  -0.452149
   10  C  2  S    0.048785   0.000000  -0.046598   0.012233   0.025782
   11  C  2  S    0.214334   0.000000  -0.479242   0.523298  -0.022687
   12  C  2  X    0.263470   0.000000  -0.421684   0.470002   0.607240
   13  C  2  Y   -0.000000  -0.582019   0.000000  -0.000000  -0.000000
   14  C  2  Z    0.436380   0.000000   0.270456  -0.193749   0.216156
   15  C  2  S   -0.826813   0.000000   1.033391   0.286740  -1.905744
   16  C  2  X   -0.059201   0.000000   1.665038  -0.689346  -2.696008
   17  C  2  Y   -0.000000   1.052643   0.000000  -0.000000  -0.000000
   18  C  2  Z    0.009701   0.000000  -0.951622   0.549124   0.452149
   19  C  3  S    0.048785   0.000000   0.046598   0.012233  -0.025782
   20  C  3  S    0.214334   0.000000   0.479242   0.523298   0.022687
   21  C  3  X   -0.263470   0.000000  -0.421684  -0.470002   0.607240
   22  C  3  Y   -0.000000   0.582019   0.000000  -0.000000  -0.000000
   23  C  3  Z    0.436380   0.000000  -0.270456  -0.193749  -0.216156
   24  C  3  S   -0.826813   0.000000  -1.033391   0.286740   1.905744
   25  C  3  X    0.059201   0.000000   1.665038   0.689346  -2.696008
   26  C  3  Y   -0.000000  -1.052643   0.000000  -0.000000  -0.000000
   27  C  3  Z    0.009701   0.000000   0.951622   0.549124  -0.452149
   28  C  4  S   -0.048785   0.000000  -0.046598   0.012233  -0.025782
   29  C  4  S   -0.214334   0.000000  -0.479242   0.523298   0.022687
   30  C  4  X   -0.263470   0.000000  -0.421684   0.470002  -0.607240
   31  C  4  Y   -0.000000   0.582019   0.000000  -0.000000  -0.000000
   32  C  4  Z    0.436380   0.000000  -0.270456   0.193749   0.216156
   33  C  4  S    0.826813   0.000000   1.033391   0.286740   1.905744
   34  C  4  X    0.059201   0.000000   1.665038  -0.689346   2.696008
   35  C  4  Y   -0.000000  -1.052643   0.000000  -0.000000  -0.000000
   36  C  4  Z    0.009701   0.000000   0.951622  -0.549124   0.452149
   37  H  5  S   -0.348171   0.000000  -0.322060  -0.112010  -0.089318
   38  H  5  S    0.064023   0.000000   1.156091  -0.519841   0.970234
   39  H  6  S    0.348171   0.000000   0.322060  -0.112010  -0.089318
   40  H  6  S   -0.064023   0.000000  -1.156091  -0.519841   0.970234
   41  H  7  S    0.348171   0.000000  -0.322060  -0.112010   0.089318
   42  H  7  S   -0.064023   0.000000   1.156091  -0.519841  -0.970234
   43  H  8  S   -0.348171   0.000000   0.322060  -0.112010   0.089318
   44  H  8  S    0.064023   0.000000  -1.156091  -0.519841  -0.970234

                     36         37         38         39         40
                    1.1237     1.1322     1.1429     1.2438     1.2856
                     B3U        B2G        B1U        AG         B1U 
    1  C  1  S    0.010492   0.015206   0.020146  -0.025706  -0.004001
    2  C  1  S   -0.742360   0.281618  -0.364678   0.567552  -0.928945
    3  C  1  X   -0.042333   0.174671  -0.476467   0.238770  -0.022819
    4  C  1  Y    0.000000   0.000000   0.000000  -0.000000  -0.000000
    5  C  1  Z    0.374990  -0.536956   0.347853  -0.259058  -0.437141
    6  C  1  S    1.801492   1.645620   0.610099  -0.972544   2.691570
    7  C  1  X    0.384141  -1.727071   1.496660  -0.344754   0.234412
    8  C  1  Y    0.000000   0.000000   0.000000  -0.000000  -0.000000
    9  C  1  Z   -1.346426   2.448840  -1.221157   0.362564   1.208707
   10  C  2  S   -0.010492   0.015206  -0.020146  -0.025706   0.004001
   11  C  2  S    0.742360   0.281618   0.364678   0.567552   0.928945
   12  C  2  X   -0.042333  -0.174671  -0.476467  -0.238770  -0.022819
   13  C  2  Y    0.000000   0.000000   0.000000  -0.000000  -0.000000
   14  C  2  Z    0.374990   0.536956   0.347853   0.259058  -0.437141
   15  C  2  S   -1.801492   1.645620  -0.610099  -0.972544  -2.691570
   16  C  2  X    0.384141   1.727071   1.496660   0.344754   0.234412
   17  C  2  Y    0.000000   0.000000   0.000000  -0.000000  -0.000000
   18  C  2  Z   -1.346426  -2.448840  -1.221157  -0.362564   1.208707
   19  C  3  S    0.010492  -0.015206  -0.020146  -0.025706   0.004001
   20  C  3  S   -0.742360  -0.281618   0.364678   0.567552   0.928945
   21  C  3  X   -0.042333  -0.174671   0.476467   0.238770   0.022819
   22  C  3  Y    0.000000   0.000000   0.000000  -0.000000  -0.000000
   23  C  3  Z   -0.374990  -0.536956   0.347853   0.259058  -0.437141
   24  C  3  S    1.801492  -1.645620  -0.610099  -0.972544  -2.691570
   25  C  3  X    0.384141   1.727071  -1.496660  -0.344754  -0.234412
   26  C  3  Y    0.000000   0.000000   0.000000  -0.000000  -0.000000
   27  C  3  Z    1.346426   2.448840  -1.221157  -0.362564   1.208707
   28  C  4  S   -0.010492  -0.015206   0.020146  -0.025706  -0.004001
   29  C  4  S    0.742360  -0.281618  -0.364678   0.567552  -0.928945
   30  C  4  X   -0.042333   0.174671   0.476467  -0.238770   0.022819
   31  C  4  Y    0.000000   0.000000   0.000000  -0.000000  -0.000000
   32  C  4  Z   -0.374990   0.536956   0.347853  -0.259058  -0.437141
   33  C  4  S   -1.801492  -1.645620   0.610099  -0.972544   2.691570
   34  C  4  X    0.384141  -1.727071  -1.496660   0.344754  -0.234412
   35  C  4  Y    0.000000   0.000000   0.000000  -0.000000  -0.000000
   36  C  4  Z    1.346426  -2.448840  -1.221157   0.362564   1.208707
   37  H  5  S    0.111698  -0.254122   0.191083  -0.529305  -0.274852
   38  H  5  S    1.099783  -1.355972  -1.476861   0.988456   0.054047
   39  H  6  S   -0.111698  -0.254122  -0.191083  -0.529305   0.274852
   40  H  6  S   -1.099783  -1.355972   1.476861   0.988456  -0.054047
   41  H  7  S    0.111698   0.254122  -0.191083  -0.529305   0.274852
   42  H  7  S    1.099783   1.355972   1.476861   0.988456  -0.054047
   43  H  8  S   -0.111698   0.254122   0.191083  -0.529305  -0.274852
   44  H  8  S   -1.099783   1.355972  -1.476861   0.988456   0.054047

                     41         42         43         44
                    1.4311     1.4957     1.5960     1.9255
                     B2G        B3U        B1U        B2G 
    1  C  1  S    0.013255  -0.032845  -0.011563  -0.095968
    2  C  1  S   -0.645454  -0.779948  -0.664303  -1.409794
    3  C  1  X    0.172458  -0.105133   0.344895   0.023757
    4  C  1  Y    0.000000   0.000000  -0.000000  -0.000000
    5  C  1  Z   -0.467170  -0.185475   0.129905   0.045157
    6  C  1  S    1.468733   1.088492   1.818280  12.681114
    7  C  1  X    0.322396  -1.324443  -1.611839  -5.249077
    8  C  1  Y    0.000000   0.000000  -0.000000  -0.000000
    9  C  1  Z    0.480955   1.339829   1.817715   5.816018
   10  C  2  S    0.013255   0.032845   0.011563  -0.095968
   11  C  2  S   -0.645454   0.779948   0.664303  -1.409794
   12  C  2  X   -0.172458  -0.105133   0.344895  -0.023757
   13  C  2  Y    0.000000   0.000000  -0.000000  -0.000000
   14  C  2  Z    0.467170  -0.185475   0.129905  -0.045157
   15  C  2  S    1.468733  -1.088492  -1.818280  12.681114
   16  C  2  X   -0.322396  -1.324443  -1.611839   5.249077
   17  C  2  Y    0.000000   0.000000  -0.000000  -0.000000
   18  C  2  Z   -0.480955   1.339829   1.817715  -5.816018
   19  C  3  S   -0.013255  -0.032845   0.011563   0.095968
   20  C  3  S    0.645454  -0.779948   0.664303   1.409794
   21  C  3  X   -0.172458  -0.105133  -0.344895  -0.023757
   22  C  3  Y    0.000000   0.000000  -0.000000  -0.000000
   23  C  3  Z   -0.467170   0.185475   0.129905   0.045157
   24  C  3  S   -1.468733   1.088492  -1.818280 -12.681114
   25  C  3  X   -0.322396  -1.324443   1.611839   5.249077
   26  C  3  Y    0.000000   0.000000  -0.000000  -0.000000
   27  C  3  Z    0.480955  -1.339829   1.817715   5.816018
   28  C  4  S   -0.013255   0.032845  -0.011563   0.095968
   29  C  4  S    0.645454   0.779948  -0.664303   1.409794
   30  C  4  X    0.172458  -0.105133  -0.344895   0.023757
   31  C  4  Y    0.000000   0.000000  -0.000000  -0.000000
   32  C  4  Z    0.467170   0.185475   0.129905  -0.045157
   33  C  4  S   -1.468733  -1.088492   1.818280 -12.681114
   34  C  4  X    0.322396  -1.324443   1.611839  -5.249077
   35  C  4  Y    0.000000   0.000000  -0.000000  -0.000000
   36  C  4  Z   -0.480955  -1.339829   1.817715  -5.816018
   37  H  5  S    0.497452  -0.584086   0.554571  -0.515316
   38  H  5  S   -0.029073  -0.476972   0.724083  -1.763505
   39  H  6  S    0.497452   0.584086  -0.554571  -0.515316
   40  H  6  S   -0.029073   0.476972  -0.724083  -1.763505
   41  H  7  S   -0.497452  -0.584086  -0.554571   0.515316
   42  H  7  S    0.029073  -0.476972  -0.724083   1.763505
   43  H  8  S   -0.497452   0.584086   0.554571   0.515316
   44  H  8  S    0.029073   0.476972   0.724083   1.763505
 ...... END OF RHF CALCULATION ......
 STEP CPU TIME =     0.02 TOTAL CPU TIME =        0.1 (    0.0 MIN)
 TOTAL WALL CLOCK TIME=        0.1 SECONDS, CPU UTILIZATION IS  72.73%

     ----------------------------------------------------------------
     PROPERTY VALUES FOR THE RHF   SELF-CONSISTENT FIELD WAVEFUNCTION
     ----------------------------------------------------------------

          -----------------
          ENERGY COMPONENTS
          -----------------

         WAVEFUNCTION NORMALIZATION =       1.0000000000

                ONE ELECTRON ENERGY =    -402.2953274417
                TWO ELECTRON ENERGY =     149.5713107368
           NUCLEAR REPULSION ENERGY =      99.1487167538
                                      ------------------
                       TOTAL ENERGY =    -153.5752999511

 ELECTRON-ELECTRON POTENTIAL ENERGY =     149.5713107368
  NUCLEUS-ELECTRON POTENTIAL ENERGY =    -556.0907963032
   NUCLEUS-NUCLEUS POTENTIAL ENERGY =      99.1487167538
                                      ------------------
             TOTAL POTENTIAL ENERGY =    -307.3707688126
               TOTAL KINETIC ENERGY =     153.7954688615
                 VIRIAL RATIO (V/T) =       1.9985684304

  ...... PI ENERGY ANALYSIS ......

 ENERGY ANALYSIS:
            FOCK ENERGY=   -103.1527108830
          BARE H ENERGY=   -402.2953274417
     ELECTRONIC ENERGY =   -252.7240191624
         KINETIC ENERGY=    153.7954688615
          N-N REPULSION=     99.1487167538
           TOTAL ENERGY=   -153.5753024085
        SIGMA PART(1+2)=   -232.2730554772
               (K,V1,2)=    149.6376963557   -512.5320094278    130.6212575949
           PI PART(1+2)=    -20.4509636852
               (K,V1,2)=      4.1577725058    -43.5587868754     18.9500506845
  SIGMA SKELETON, ERROR=   -133.1243387234     -0.0000000000
             MIXED PART= 0.00000E+00 0.00000E+00 0.00000E+00 0.00000E+00
 ...... END OF PI ENERGY ANALYSIS ......

          ---------------------------------------
          MULLIKEN AND LOWDIN POPULATION ANALYSES
          ---------------------------------------

     ATOMIC MULLIKEN POPULATION IN EACH MOLECULAR ORBITAL

                      1          2          3          4          5

                  2.000000   2.000000   2.000000   2.000000   2.000000

    1             0.499903   0.499940   0.499977   0.500114   0.489173
    2             0.499903   0.499940   0.499977   0.500114   0.489173
    3             0.499903   0.499940   0.499977   0.500114   0.489173
    4             0.499903   0.499940   0.499977   0.500114   0.489173
    5             0.000097   0.000060   0.000023  -0.000114   0.010827
    6             0.000097   0.000060   0.000023  -0.000114   0.010827
    7             0.000097   0.000060   0.000023  -0.000114   0.010827
    8             0.000097   0.000060   0.000023  -0.000114   0.010827

                      6          7          8          9         10

                  2.000000   2.000000   2.000000   2.000000   2.000000

    1             0.450524   0.391994   0.329811   0.328199   0.343782
    2             0.450524   0.391994   0.329811   0.328199   0.343782
    3             0.450524   0.391994   0.329811   0.328199   0.343782
    4             0.450524   0.391994   0.329811   0.328199   0.343782
    5             0.049476   0.108006   0.170189   0.171801   0.156218
    6             0.049476   0.108006   0.170189   0.171801   0.156218
    7             0.049476   0.108006   0.170189   0.171801   0.156218
    8             0.049476   0.108006   0.170189   0.171801   0.156218

                     11         12         13         14

                  2.000000   2.000000   2.000000   2.000000

    1             0.498458   0.500000   0.387312   0.500000
    2             0.498458   0.500000   0.387312   0.500000
    3             0.498458   0.500000   0.387312   0.500000
    4             0.498458   0.500000   0.387312   0.500000
    5             0.001542   0.000000   0.112688   0.000000
    6             0.001542   0.000000   0.112688   0.000000
    7             0.001542   0.000000   0.112688   0.000000
    8             0.001542   0.000000   0.112688   0.000000

               ----- POPULATIONS IN EACH AO -----
                             MULLIKEN      LOWDIN
              1  C  1  S      1.99779     1.98961
              2  C  1  S      0.69732     0.56513
              3  C  1  X      0.66743     0.61259
              4  C  1  Y      0.53532     0.50698
              5  C  1  Z      0.76644     0.70694
              6  C  1  S      0.50875     0.42746
              7  C  1  X      0.33346     0.42097
              8  C  1  Y      0.46468     0.49302
              9  C  1  Z      0.24799     0.40202
             10  C  2  S      1.99779     1.98961
             11  C  2  S      0.69732     0.56513
             12  C  2  X      0.66743     0.61259
             13  C  2  Y      0.53532     0.50698
             14  C  2  Z      0.76644     0.70694
             15  C  2  S      0.50875     0.42746
             16  C  2  X      0.33346     0.42097
             17  C  2  Y      0.46468     0.49302
             18  C  2  Z      0.24799     0.40202
             19  C  3  S      1.99779     1.98961
             20  C  3  S      0.69732     0.56513
             21  C  3  X      0.66743     0.61259
             22  C  3  Y      0.53532     0.50698
             23  C  3  Z      0.76644     0.70694
             24  C  3  S      0.50875     0.42746
             25  C  3  X      0.33346     0.42097
             26  C  3  Y      0.46468     0.49302
             27  C  3  Z      0.24799     0.40202
             28  C  4  S      1.99779     1.98961
             29  C  4  S      0.69732     0.56513
             30  C  4  X      0.66743     0.61259
             31  C  4  Y      0.53532     0.50698
             32  C  4  Z      0.76644     0.70694
             33  C  4  S      0.50875     0.42746
             34  C  4  X      0.33346     0.42097
             35  C  4  Y      0.46468     0.49302
             36  C  4  Z      0.24799     0.40202
             37  H  5  S      0.53509     0.50904
             38  H  5  S      0.24572     0.36623
             39  H  6  S      0.53509     0.50904
             40  H  6  S      0.24572     0.36623
             41  H  7  S      0.53509     0.50904
             42  H  7  S      0.24572     0.36623
             43  H  8  S      0.53509     0.50904
             44  H  8  S      0.24572     0.36623

          ----- MULLIKEN ATOMIC OVERLAP POPULATIONS -----
          (OFF-DIAGONAL ELEMENTS NEED TO BE MULTIPLIED BY 2)

             1           2           3           4           5

    1    5.1840705
    2   -0.2635183   5.1840705
    3    0.5962629   0.3642718   5.1840705
    4    0.3642718   0.5962629  -0.2635183   5.1840705
    5   -0.0125236  -0.0110140   0.0070326   0.3546042   0.4411410
    6   -0.0110140  -0.0125236   0.3546042   0.0070326  -0.0002092
    7    0.0070326   0.3546042  -0.0125236  -0.0110140   0.0009721
    8    0.3546042   0.0070326  -0.0110140  -0.0125236   0.0008109

             6           7           8

    6    0.4411410
    7    0.0008109   0.4411410
    8    0.0009721  -0.0002092   0.4411410

          TOTAL MULLIKEN AND LOWDIN ATOMIC POPULATIONS
       ATOM         MULL.POP.    CHARGE          LOW.POP.     CHARGE
    1 C             6.219186   -0.219186         6.124726   -0.124726
    2 C             6.219186   -0.219186         6.124726   -0.124726
    3 C             6.219186   -0.219186         6.124726   -0.124726
    4 C             6.219186   -0.219186         6.124726   -0.124726
    5 H             0.780814    0.219186         0.875274    0.124726
    6 H             0.780814    0.219186         0.875274    0.124726
    7 H             0.780814    0.219186         0.875274    0.124726
    8 H             0.780814    0.219186         0.875274    0.124726

          -------------------------------
          BOND ORDER AND VALENCE ANALYSIS     BOND ORDER THRESHOLD=0.050
          -------------------------------

                   BOND                       BOND                       BOND
  ATOM PAIR DIST  ORDER      ATOM PAIR DIST  ORDER      ATOM PAIR DIST  ORDER
    1   2  2.062 -0.115        1   3  1.327  2.022        1   4  1.578  1.023
    1   8  1.068  0.907        2   3  1.578  1.023        2   4  1.327  2.022
    2   7  1.068  0.907        3   4  2.062 -0.115        3   6  1.068  0.907
    4   5  1.068  0.907

                       TOTAL       BONDED        FREE
      ATOM            VALENCE     VALENCE     VALENCE
    1 C                 3.852       3.852      -0.000
    2 C                 3.852       3.852      -0.000
    3 C                 3.852       3.852      -0.000
    4 C                 3.852       3.852      -0.000
    5 H                 0.927       0.927      -0.000
    6 H                 0.927       0.927      -0.000
    7 H                 0.927       0.927      -0.000
    8 H                 0.927       0.927      -0.000

          ---------------------
          ELECTROSTATIC MOMENTS
          ---------------------

 POINT   1           X           Y           Z (BOHR)    CHARGE
                 0.000000   -0.000000    0.000000       -0.00 (A.U.)
         DX          DY          DZ         /D/  (DEBYE)
    -0.000000    0.000000    0.000000    0.000000
 ...... END OF PROPERTY EVALUATION ......
 STEP CPU TIME =     0.01 TOTAL CPU TIME =        0.1 (    0.0 MIN)
 TOTAL WALL CLOCK TIME=        0.1 SECONDS, CPU UTILIZATION IS  81.82%
      580000  WORDS OF DYNAMIC MEMORY USED
 EXECUTION OF GAMESS TERMINATED NORMALLY Mon Dec  5 12:59:05 2011
 DDI: 263224 bytes (0.3 MB / 0 MWords) used by master data server.

 ----------------------------------------
 CPU timing information for all processes
 ========================================
 0: 0.76 + 0.20 = 0.96
 ----------------------------------------
 ddikick.x: exited gracefully.
unset echo
----- accounting info -----
Files used on the master node idhi were:
-rw-r--r-- 1 koushik koushik     479 2011-12-05 12:59 /home/koushik/Desktop/gamess/cyclobutadieneenergy.F05
-rw-r--r-- 1 koushik koushik  900060 2011-12-05 12:59 /home/koushik/Desktop/gamess/cyclobutadieneenergy.F08
-rw-r--r-- 1 koushik koushik 1210640 2011-12-05 12:59 /home/koushik/Desktop/gamess/cyclobutadieneenergy.F10
-rw-r--r-- 1 koushik koushik     479 2011-12-05 12:58 /home/koushik/Desktop/gamess/cyclobutadieneenergy.inp
-rw-r--r-- 1 koushik koushik   65807 2011-12-05 12:59 /home/koushik/Desktop/gamess/cyclobutadieneenergy.log
Mon Dec  5 12:59:08 IST 2011
0.0u 0.0s 0:03.19 3.4% 0+0k 0+32io 0pf+0w
