          ******************************************************
          *         GAMESS VERSION =  1 OCT 2010 (R1)          *
          *             FROM IOWA STATE UNIVERSITY             *
          * M.W.SCHMIDT, K.K.BALDRIDGE, J.A.BOATZ, S.T.ELBERT, *
          *   M.S.GORDON, J.H.JENSEN, S.KOSEKI, N.MATSUNAGA,   *
          *          K.A.NGUYEN, S.J.SU, T.L.WINDUS,           *
          *       TOGETHER WITH M.DUPUIS, J.A.MONTGOMERY       *
          *         J.COMPUT.CHEM.  14, 1347-1363(1993)        *
          **************** 32 BIT LINUX VERSION ****************

  SINCE 1993, STUDENTS AND POSTDOCS WORKING AT IOWA STATE UNIVERSITY
  AND ALSO IN THEIR VARIOUS JOBS AFTER LEAVING ISU HAVE MADE IMPORTANT
  CONTRIBUTIONS TO THE CODE:
     IVANA ADAMOVIC, CHRISTINE AIKENS, YURI ALEXEEV, POOJA ARORA,
     ANDREY ASADCHEV, ROB BELL, PRADIPTA BANDYOPADHYAY, JONATHAN BENTZ,
     BRETT BODE, GALINA CHABAN, WEI CHEN, CHEOL HO CHOI, PAUL DAY, TIM DUDLEY,
     DMITRI FEDOROV, GRAHAM FLETCHER, MARK FREITAG, KURT GLAESEMANN, DAN KEMP,
     GRANT MERRILL, NORIYUKI MINEZAWA, JONATHAN MULLIN, TAKESHI NAGATA,
     SEAN NEDD, HEATHER NETZLOFF, BOSILJKA NJEGIC, RYAN OLSON, MIKE PAK,
     JIM SHOEMAKER, LYUDMILA SLIPCHENKO, SAROM SOK, JIE SONG,
     TETSUYA TAKETSUGU, SIMON WEBB, SOOHAENG YOO, FEDERICO ZAHARIEV

  ADDITIONAL CODE HAS BEEN PROVIDED BY COLLABORATORS IN OTHER GROUPS:
     IOWA STATE UNIVERSITY:
          JOE IVANIC, LAIMUTIS BYTAUTAS, KLAUS RUEDENBERG
     UNIVERSITY OF TOKYO: KIMIHIKO HIRAO, TAKAHITO NAKAJIMA,
          TAKAO TSUNEDA, MUNEAKI KAMIYA, SUSUMU YANAGISAWA,
          KIYOSHI YAGI, MAHITO CHIBA, SEIKEN TOKURA, NAOAKI KAWAKAMI
     UNIVERSITY OF AARHUS: FRANK JENSEN
     UNIVERSITY OF IOWA: VISVALDAS KAIRYS, HUI LI
     NATIONAL INST. OF STANDARDS AND TECHNOLOGY: WALT STEVENS, DAVID GARMER
     UNIVERSITY OF PISA: BENEDETTA MENNUCCI, JACOPO TOMASI
     UNIVERSITY OF MEMPHIS: HENRY KURTZ, PRAKASHAN KORAMBATH
     UNIVERSITY OF ALBERTA: TOBY ZENG, MARIUSZ KLOBUKOWSKI
     UNIVERSITY OF NEW ENGLAND: MARK SPACKMAN
     MIE UNIVERSITY: HIROAKI UMEDA
     MICHIGAN STATE UNIVERSITY:
          KAROL KOWALSKI, MARTA WLOCH, JEFFREY GOUR, JESSE LUTZ, PIOTR PIECUCH
     UNIVERSITY OF SILESIA: MONIKA MUSIAL, STANISLAW KUCHARSKI
     FACULTES UNIVERSITAIRES NOTRE-DAME DE LA PAIX:
          OLIVIER QUINET, BENOIT CHAMPAGNE
     UNIVERSITY OF CALIFORNIA - SANTA BARBARA: BERNARD KIRTMAN
     INSTITUTE FOR MOLECULAR SCIENCE:
          KAZUYA ISHIMURA, MICHIO KATOUDA, AND SHIGERU NAGASE
     UNIVERSITY OF NOTRE DAME: DAN CHIPMAN
     KYUSHU UNIVERSITY:
          HARUYUKI NAKANO,
          FENG LONG GU, JACEK KORCHOWIEC, MARCIN MAKOWSKI, AND YURIKO AOKI,
          HIROTOSHI MORI AND EISAKU MIYOSHI
     PENNSYLVANIA STATE UNIVERSITY:
          TZVETELIN IORDANOV, CHET SWALINA, JONATHAN SKONE,
          SHARON HAMMES-SCHIFFER
     WASEDA UNIVERSITY:
          MASATO KOBAYASHI, TOMOKO AKAMA, HIROMI NAKAI
     UNIVERSITY OF NEBRASKA:
          PEIFENG SU, DEJUN SI, YALI WANG, HUI LI
     UNIVERSITY OF ZURICH:
          ROBERTO PEVERATI, KIM BALDRIDGE
     N. COPERNICUS UNIVERSITY AND JACKSON STATE UNIVERSITY:
          MARIA BARYSZ

 EXECUTION OF GAMESS BEGUN Mon Oct  3 12:29:55 2011

            ECHO OF THE FIRST FEW INPUT CARDS -
 INPUT CARD> $CONTRL RUNTYP=OPTIMIZE COORD=ZMT UNITS=ANGS $END                              
 INPUT CARD> $BASIS  GBASIS=N31 NGAUSS=6 NDFUNC=1 $END                                      
 INPUT CARD> $DATA                                                                          
 INPUT CARD>6-31g(d)/ Benzene optimization                                                  
 INPUT CARD>Dnh 6                                                                           
 INPUT CARD>                                                                                
 INPUT CARD>C                                                                               
 INPUT CARD>C     1    rCC                                                                  
 INPUT CARD>C     2    rCC       1    a                                                     
 INPUT CARD>C     3    rCC       2    a        1    d1                                      
 INPUT CARD>C     4    rCC       3    a        2    d2                                      
 INPUT CARD>C     1    rCC       2    a        3    d2                                      
 INPUT CARD>H     1    rCH       6    a        5    d3                                      
 INPUT CARD>H     2    rCH       1    a        6    d4                                      
 INPUT CARD>H     3    rCH       2    a        1    d4                                      
 INPUT CARD>H     4    rCH       3    a        2    d3                                      
 INPUT CARD>H     5    rCH       4    a        3    d3                                      
 INPUT CARD>H     6    rCH       1    a        2    d4                                      
 INPUT CARD>                                                                                
 INPUT CARD>rCC=1.39                                                                        
 INPUT CARD>rCH=1.09                                                                        
 INPUT CARD>a=120                                                                           
 INPUT CARD>d1=0                                                                            
 INPUT CARD>d2=0                                                                            
 INPUT CARD>d3=-180                                                                         
 INPUT CARD>d4=180                                                                          
 INPUT CARD> $END                                                                           
 INPUT CARD>                                                                                
    1000000 WORDS OF MEMORY AVAILABLE

     BASIS OPTIONS
     -------------
     GBASIS=N31          IGAUSS=       6      POLAR=POPN31  
     NDFUNC=       1     NFFUNC=       0     DIFFSP=       F
     NPFUNC=       0      DIFFS=       F     BASNAM=        


     RUN TITLE
     ---------
 6-31g(d)/ Benzene optimization                                                  

 THE POINT GROUP OF THE MOLECULE IS DNH     
 THE ORDER OF THE PRINCIPAL AXIS IS     6

 YOUR FULLY SUBSTITUTED Z-MATRIX IS
 C   
 C      1   1.3900000
 C      2   1.3900000  1  120.0000
 C      3   1.3900000  2  120.0000  1    0.0000  0
 C      4   1.3900000  3  120.0000  2    0.0000  0
 C      1   1.3900000  2  120.0000  3    0.0000  0
 H      1   1.0900000  6  120.0000  5 -180.0000  0
 H      2   1.0900000  1  120.0000  6  180.0000  0
 H      3   1.0900000  2  120.0000  1  180.0000  0
 H      4   1.0900000  3  120.0000  2 -180.0000  0
 H      5   1.0900000  4  120.0000  3 -180.0000  0
 H      6   1.0900000  1  120.0000  2  180.0000  0

 THE MOMENTS OF INERTIA ARE (AMU-ANGSTROM**2)
 IXX=    88.151   IYY=   176.302   IZZ=    88.151

 ATOM      ATOMIC                      COORDINATES (BOHR)
           CHARGE         X                   Y                   Z
 C           6.0     0.0000000000       -2.6267191229        0.0000000000
 C           6.0     2.2748054891       -1.3133595615        0.0000000000
 C           6.0     2.2748054891        1.3133595615        0.0000000000
 C           6.0    -0.0000000000        2.6267191229        0.0000000000
 C           6.0    -2.2748054891        1.3133595615        0.0000000000
 C           6.0    -2.2748054891       -1.3133595615        0.0000000000
 H           1.0    -0.0000000000       -4.6865204496        0.0000000000
 H           1.0     4.0586457647       -2.3432602248        0.0000000000
 H           1.0     4.0586457647        2.3432602248        0.0000000000
 H           1.0     0.0000000000        4.6865204496        0.0000000000
 H           1.0    -4.0586457647        2.3432602248        0.0000000000
 H           1.0    -4.0586457647       -2.3432602248        0.0000000000

          INTERNUCLEAR DISTANCES (ANGS.)
          ------------------------------

                1 C          2 C          3 C          4 C          5 C     

   1 C       0.0000000    1.3900000 *  2.4075506 *  2.7800000 *  2.4075506 *
   2 C       1.3900000 *  0.0000000    1.3900000 *  2.4075506 *  2.7800000 *
   3 C       2.4075506 *  1.3900000 *  0.0000000    1.3900000 *  2.4075506 *
   4 C       2.7800000 *  2.4075506 *  1.3900000 *  0.0000000    1.3900000 *
   5 C       2.4075506 *  2.7800000 *  2.4075506 *  1.3900000 *  0.0000000  
   6 C       1.3900000 *  2.4075506 *  2.7800000 *  2.4075506 *  1.3900000 *
   7 H       1.0900000 *  2.1529747 *  3.3955412    3.8700000    3.3955412  
   8 H       2.1529747 *  1.0900000 *  2.1529747 *  3.3955412    3.8700000  
   9 H       3.3955412    2.1529747 *  1.0900000 *  2.1529747 *  3.3955412  
  10 H       3.8700000    3.3955412    2.1529747 *  1.0900000 *  2.1529747 *
  11 H       3.3955412    3.8700000    3.3955412    2.1529747 *  1.0900000 *
  12 H       2.1529747 *  3.3955412    3.8700000    3.3955412    2.1529747 *

                6 C          7 H          8 H          9 H         10 H     

   1 C       1.3900000 *  1.0900000 *  2.1529747 *  3.3955412    3.8700000  
   2 C       2.4075506 *  2.1529747 *  1.0900000 *  2.1529747 *  3.3955412  
   3 C       2.7800000 *  3.3955412    2.1529747 *  1.0900000 *  2.1529747 *
   4 C       2.4075506 *  3.8700000    3.3955412    2.1529747 *  1.0900000 *
   5 C       1.3900000 *  3.3955412    3.8700000    3.3955412    2.1529747 *
   6 C       0.0000000    2.1529747 *  3.3955412    3.8700000    3.3955412  
   7 H       2.1529747 *  0.0000000    2.4800000 *  4.2954860    4.9600000  
   8 H       3.3955412    2.4800000 *  0.0000000    2.4800000 *  4.2954860  
   9 H       3.8700000    4.2954860    2.4800000 *  0.0000000    2.4800000 *
  10 H       3.3955412    4.9600000    4.2954860    2.4800000 *  0.0000000  
  11 H       2.1529747 *  4.2954860    4.9600000    4.2954860    2.4800000 *
  12 H       1.0900000 *  2.4800000 *  4.2954860    4.9600000    4.2954860  

               11 H         12 H     

   1 C       3.3955412    2.1529747 *
   2 C       3.8700000    3.3955412  
   3 C       3.3955412    3.8700000  
   4 C       2.1529747 *  3.3955412  
   5 C       1.0900000 *  2.1529747 *
   6 C       2.1529747 *  1.0900000 *
   7 H       4.2954860    2.4800000 *
   8 H       4.9600000    4.2954860  
   9 H       4.2954860    4.9600000  
  10 H       2.4800000 *  4.2954860  
  11 H       0.0000000    2.4800000 *
  12 H       2.4800000 *  0.0000000  

  * ... LESS THAN  3.000


     ATOMIC BASIS SET
     ----------------
 THE CONTRACTED PRIMITIVE FUNCTIONS HAVE BEEN UNNORMALIZED
 THE CONTRACTED BASIS FUNCTIONS ARE NOW NORMALIZED TO UNITY

  SHELL TYPE  PRIMITIVE        EXPONENT          CONTRACTION COEFFICIENT(S)

 C         

     21   S       1          3047.5248800    0.001834737132
     21   S       2           457.3695180    0.014037322813
     21   S       3           103.9486850    0.068842622264
     21   S       4            29.2101553    0.232184443216
     21   S       5             9.2866630    0.467941348435
     21   S       6             3.1639270    0.362311985337

     22   L       7             7.8682723   -0.119332419775    0.068999066591
     22   L       8             1.8812885   -0.160854151696    0.316423960957
     22   L       9             0.5442493    1.143456437840    0.744308290898

     23   L      10             0.1687145    1.000000000000    1.000000000000

     24   D      11             0.8000000    1.000000000000

 H         

     35   S      12            18.7311370    0.033494604338
     35   S      13             2.8253944    0.234726953484
     35   S      14             0.6401217    0.813757326146

     36   S      15             0.1612778    1.000000000000

 TOTAL NUMBER OF BASIS SET SHELLS             =   36
 NUMBER OF CARTESIAN GAUSSIAN BASIS FUNCTIONS =  102
 NUMBER OF ELECTRONS                          =   42
 CHARGE OF MOLECULE                           =    0
 SPIN MULTIPLICITY                            =    1
 NUMBER OF OCCUPIED ORBITALS (ALPHA)          =   21
 NUMBER OF OCCUPIED ORBITALS (BETA )          =   21
 TOTAL NUMBER OF ATOMS                        =   12
 THE NUCLEAR REPULSION ENERGY IS      203.9235234771

     $CONTRL OPTIONS
     ---------------
 SCFTYP=RHF          RUNTYP=OPTIMIZE     EXETYP=RUN     
 MPLEVL=       0     CITYP =NONE         CCTYP =NONE         VBTYP =NONE    
 DFTTYP=NONE         TDDFT =NONE    
 MULT  =       1     ICHARG=       0     NZVAR =       0     COORD =ZMT     
 PP    =NONE         RELWFN=NONE         LOCAL =NONE         NUMGRD=       F
 ISPHER=      -1     NOSYM =       0     MAXIT =      30     UNITS =ANGS    
 PLTORB=       F     MOLPLT=       F     AIMPAC=       F     FRIEND=        
 NPRINT=       7     IREST =       0     GEOM  =INPUT   
 NORMF =       0     NORMP =       0     ITOL  =      20     ICUT  =       9
 INTTYP=BEST         GRDTYP=BEST         QMTTOL= 1.0E-06

     $SYSTEM OPTIONS
     ---------------
  REPLICATED MEMORY=     1000000 WORDS (ON EVERY NODE).
 DISTRIBUTED MEMDDI=           0 MILLION WORDS IN AGGREGATE,
 MEMDDI DISTRIBUTED OVER   1 PROCESSORS IS           0 WORDS/PROCESSOR.
 TOTAL MEMORY REQUESTED ON EACH PROCESSOR=     1000000 WORDS.
 TIMLIM=      525600.00 MINUTES, OR     365.0 DAYS.
 PARALL= F  BALTYP=  DLB     KDIAG=    0  COREFL= F
 MXSEQ2=     300 MXSEQ3=     150

          ----------------
          PROPERTIES INPUT
          ----------------

     MOMENTS            FIELD           POTENTIAL          DENSITY
 IEMOM =       1   IEFLD =       0   IEPOT =       0   IEDEN =       0
 WHERE =COMASS     WHERE =NUCLEI     WHERE =NUCLEI     WHERE =NUCLEI  
 OUTPUT=BOTH       OUTPUT=BOTH       OUTPUT=BOTH       OUTPUT=BOTH    
 IEMINT=       0   IEFINT=       0                     IEDINT=       0
                                                       MORB  =       0
          EXTRAPOLATION IN EFFECT
          DIIS IN EFFECT
 ORBITAL PRINTING OPTION: NPREO=     1   102     2     1

     -------------------------------
     INTEGRAL TRANSFORMATION OPTIONS
     -------------------------------
     NWORD  =            0
     CUTOFF = 1.0E-09     MPTRAN =       0
     DIRTRF =       F     AOINTS =DUP     

          ----------------------
          INTEGRAL INPUT OPTIONS
          ----------------------
 NOPK  =       1 NORDER=       0 SCHWRZ=       T

   --- ENCODED Z MATRIX ---
 COORD  TYPE   I   J   K   L   M   N
    1      1    5   6
    2      1    4   5
    3      2    4   5   6
    4      1    3   4
    5      2    3   4   5
    6      3    3   4   5   6
    7      1    2   3
    8      2    2   3   4
    9      3    2   3   4   5
   10      1    1   6
   11      2    1   6   5
   12      3    1   6   5   4
   13      1   12   6
   14      2   12   6   1
   15      3   12   6   1   2
   16      1   11   5
   17      2   11   5   6
   18      3   11   5   6   1
   19      1   10   4
   20      2   10   4   5
   21      3   10   4   5   6
   22      1    9   3
   23      2    9   3   4
   24      3    9   3   4   5
   25      1    8   2
   26      2    8   2   3
   27      3    8   2   3   4
   28      1    7   1
   29      2    7   1   6
   30      3    7   1   6   5

 THE DETERMINANT OF THE G MATRIX IS 10**(   -21)

     ------------------------------------------
     THE POINT GROUP IS DNH, NAXIS= 6, ORDER=24
     ------------------------------------------

     DIMENSIONS OF THE SYMMETRY SUBSPACES ARE
 A1G =   10     A1U =    1     B1U =    3     B1G =    3     A2G =    3
 A2U =    3     B2U =   10     B2G =    1     E1G =    4     E1U =   13
 E2U =    4     E2G =   13

 ..... DONE SETTING UP THE RUN .....
 STEP CPU TIME =     0.01 TOTAL CPU TIME =        0.0 (    0.0 MIN)
 TOTAL WALL CLOCK TIME=        0.0 SECONDS, CPU UTILIZATION IS  50.00%


          -----------------------------
          STATIONARY POINT LOCATION RUN
          -----------------------------

 OBTAINING INITIAL HESSIAN, HESS=GUESS   
 CARTESIAN COORDINATE OPTIMIZATION USING BADGER'S RULE FORCE CONSTANT GUESS

          PARAMETERS CONTROLLING GEOMETRY SEARCH ARE
          METHOD =QA                  UPHESS =BFGS    
          NNEG   =         0          NFRZ   =         0
          NSTEP  =        50          IFOLOW =         1
          HESS   =GUESS               RESTAR =         F
          IHREP  =         0          HSSEND =         F
          NPRT   =         0          NPUN   =         0
          OPTTOL = 1.000E-04          RMIN   = 1.500E-03
          RMAX   = 1.000E-01          RLIM   = 7.000E-02
          DXMAX  = 3.000E-01          PURIFY =         F
          MOVIE  =         F          TRUPD  =         T
          TRMAX  = 5.000E-01          TRMIN  = 5.000E-02
          ITBMAT =         5          STPT   =         F
          STSTEP = 1.000E-02          PROJCT=          T

 BEGINNING GEOMETRY SEARCH POINT NSERCH=   0 ...

 COORDINATES OF SYMMETRY UNIQUE ATOMS (ANGS)
   ATOM   CHARGE       X              Y              Z
 ------------------------------------------------------------
 C           6.0  -1.2037753113  -0.6950000000   0.0000000000
 H           1.0  -2.1477430014  -1.2400000000   0.0000000000
 COORDINATES OF ALL ATOMS ARE (ANGS)
   ATOM   CHARGE       X              Y              Z
 ------------------------------------------------------------
 C           6.0   0.0000000000  -1.3900000000   0.0000000000
 C           6.0   1.2037753113  -0.6950000000   0.0000000000
 C           6.0   1.2037753113   0.6950000000   0.0000000000
 C           6.0  -0.0000000000   1.3900000000   0.0000000000
 C           6.0  -1.2037753113   0.6950000000   0.0000000000
 C           6.0  -1.2037753113  -0.6950000000   0.0000000000
 H           1.0  -0.0000000000  -2.4800000000   0.0000000000
 H           1.0   2.1477430014  -1.2400000000   0.0000000000
 H           1.0   2.1477430014   1.2400000000   0.0000000000
 H           1.0   0.0000000000   2.4800000000   0.0000000000
 H           1.0  -2.1477430014   1.2400000000   0.0000000000
 H           1.0  -2.1477430014  -1.2400000000   0.0000000000

 THE CURRENT FULLY SUBSTITUTED Z-MATRIX IS
 C   
 C      1   1.3900000
 C      2   1.3900000  1   120.0000000
 C      3   1.3900000  2   120.0000000  1     0.0000000  0
 C      4   1.3900000  3   120.0000000  2     0.0000000  0
 C      1   1.3900000  2   120.0000000  3     0.0000000  0
 H      1   1.0900000  6   120.0000000  5   180.0000000  0
 H      2   1.0900000  1   120.0000000  6   180.0000000  0
 H      3   1.0900000  2   120.0000000  1   180.0000000  0
 H      4   1.0900000  3   120.0000000  2   180.0000000  0
 H      5   1.0900000  4   120.0000000  3   180.0000000  0
 H      6   1.0900000  1   120.0000000  2   180.0000000  0

          ********************
          1 ELECTRON INTEGRALS
          ********************
 ...... END OF ONE-ELECTRON INTEGRALS ......
 STEP CPU TIME =     0.01 TOTAL CPU TIME =        0.0 (    0.0 MIN)
 TOTAL WALL CLOCK TIME=        0.0 SECONDS, CPU UTILIZATION IS 100.00%

          -------------
          GUESS OPTIONS
          -------------
          GUESS =HUCKEL            NORB  =       0          NORDER=       0
          MIX   =       F          PRTMO =       F          PUNMO =       F
          TOLZ  = 1.0E-08          TOLE  = 1.0E-05
          SYMDEN=       F          PURIFY=       F

 INITIAL GUESS ORBITALS GENERATED BY HUCKEL   ROUTINE.
 HUCKEL GUESS REQUIRES     89640 WORDS.

 SYMMETRIES FOR INITIAL GUESS ORBITALS FOLLOW.   BOTH SET(S).
    21 ORBITALS ARE OCCUPIED (    6 CORE ORBITALS).
     7=?A1G     8=?E1U     9=?E1U    10=?E2G    11=?E2G    12=?A1G    13=A2U 
    14=?B2U    15=?B1U    16=?E1U    17=?E1U    18=E1G     19=E1G     20=?E2G
    21=?E2G    22=E2U     23=E2U     24=B1G     25=E1U     26=E1U     27=A1G 
    28=A1G     29=A1G     30=A1G     31=?A1G
 ...... END OF INITIAL ORBITAL SELECTION ......
 STEP CPU TIME =     0.06 TOTAL CPU TIME =        0.1 (    0.0 MIN)
 TOTAL WALL CLOCK TIME=        0.1 SECONDS, CPU UTILIZATION IS  88.89%

                    ----------------------
                    AO INTEGRAL TECHNOLOGY
                    ----------------------
     S,P,L SHELL ROTATED AXIS INTEGRALS, REPROGRAMMED BY
        KAZUYA ISHIMURA (IMS) AND JOSE SIERRA (SYNSTAR).
     S,P,D,L SHELL ROTATED AXIS INTEGRALS PROGRAMMED BY
        KAZUYA ISHIMURA (INSTITUTE FOR MOLECULAR SCIENCE).
     S,P,D,F,G SHELL TO TOTAL QUARTET ANGULAR MOMENTUM SUM 5,
        ERIC PROGRAM BY GRAHAM FLETCHER (ELORET AND NASA ADVANCED
        SUPERCOMPUTING DIVISION, AMES RESEARCH CENTER).
     S,P,D,F,G,L SHELL GENERAL RYS QUADRATURE PROGRAMMED BY
        MICHEL DUPUIS (PACIFIC NORTHWEST NATIONAL LABORATORY).

          --------------------
          2 ELECTRON INTEGRALS
          --------------------

 THE -PK- OPTION IS OFF, THE INTEGRALS ARE NOT IN SUPERMATRIX FORM.
 STORING   15000 INTEGRALS/RECORD ON DISK, USING 12 BYTES/INTEGRAL.
 TWO ELECTRON INTEGRAL EVALUATION REQUIRES   91062 WORDS OF MEMORY.
 SCHWARZ INEQUALITY OVERHEAD:      5250 INTEGRALS, T=        0.01
 II,JST,KST,LST =  1  1  1  1 NREC =         1 INTLOC =    1
 II,JST,KST,LST =  2  1  1  1 NREC =         1 INTLOC =    1
 II,JST,KST,LST =  3  1  1  1 NREC =         1 INTLOC =    1
 II,JST,KST,LST =  4  1  1  1 NREC =         1 INTLOC =    1
 II,JST,KST,LST =  5  1  1  1 NREC =         1 INTLOC =    1
 II,JST,KST,LST =  6  1  1  1 NREC =         1 INTLOC =    1
 II,JST,KST,LST =  7  1  1  1 NREC =         1 INTLOC =    1
 II,JST,KST,LST =  8  1  1  1 NREC =         1 INTLOC =    1
 II,JST,KST,LST =  9  1  1  1 NREC =         1 INTLOC =    1
 II,JST,KST,LST = 10  1  1  1 NREC =         1 INTLOC =    1
 II,JST,KST,LST = 11  1  1  1 NREC =         1 INTLOC =    1
 II,JST,KST,LST = 12  1  1  1 NREC =         1 INTLOC =    1
 II,JST,KST,LST = 13  1  1  1 NREC =         1 INTLOC =    1
 II,JST,KST,LST = 14  1  1  1 NREC =         1 INTLOC =    1
 II,JST,KST,LST = 15  1  1  1 NREC =         1 INTLOC =    1
 II,JST,KST,LST = 16  1  1  1 NREC =         1 INTLOC =    1
 II,JST,KST,LST = 17  1  1  1 NREC =         1 INTLOC =    1
 II,JST,KST,LST = 18  1  1  1 NREC =         1 INTLOC =    1
 II,JST,KST,LST = 19  1  1  1 NREC =         1 INTLOC =    1
 II,JST,KST,LST = 20  1  1  1 NREC =         1 INTLOC =    1
 II,JST,KST,LST = 21  1  1  1 NREC =         1 INTLOC =    1
 II,JST,KST,LST = 22  1  1  1 NREC =         1 INTLOC =    8
 II,JST,KST,LST = 23  1  1  1 NREC =         1 INTLOC = 5904
 II,JST,KST,LST = 24  1  1  1 NREC =         4 INTLOC = 9947
 II,JST,KST,LST = 25  1  1  1 NREC =        26 INTLOC = 8096
 II,JST,KST,LST = 26  1  1  1 NREC =        26 INTLOC = 8096
 II,JST,KST,LST = 27  1  1  1 NREC =        26 INTLOC = 8096
 II,JST,KST,LST = 28  1  1  1 NREC =        26 INTLOC = 8096
 II,JST,KST,LST = 29  1  1  1 NREC =        26 INTLOC = 8096
 II,JST,KST,LST = 30  1  1  1 NREC =        26 INTLOC = 8096
 II,JST,KST,LST = 31  1  1  1 NREC =        26 INTLOC = 8096
 II,JST,KST,LST = 32  1  1  1 NREC =        26 INTLOC = 8096
 II,JST,KST,LST = 33  1  1  1 NREC =        26 INTLOC = 8096
 II,JST,KST,LST = 34  1  1  1 NREC =        26 INTLOC = 8096
 II,JST,KST,LST = 35  1  1  1 NREC =        26 INTLOC = 8096
 II,JST,KST,LST = 36  1  1  1 NREC =        33 INTLOC = 7613
 SCHWARZ INEQUALITY TEST SKIPPED        2350 INTEGRAL BLOCKS.
 TOTAL NUMBER OF NONZERO TWO-ELECTRON INTEGRALS =              632359
         43 INTEGRAL RECORDS WERE STORED ON DISK FILE  8.
  ...... END OF TWO-ELECTRON INTEGRALS .....
 STEP CPU TIME =     0.14 TOTAL CPU TIME =        0.2 (    0.0 MIN)
 TOTAL WALL CLOCK TIME=        0.2 SECONDS, CPU UTILIZATION IS  95.65%

          --------------------------
                 RHF SCF CALCULATION
          --------------------------

     NUCLEAR ENERGY =       203.9235234771
     MAXIT =   30     NPUNCH=    2
     EXTRAP=T  DAMP=F  SHIFT=F  RSTRCT=F  DIIS=T  DEM=F  SOSCF=F
     DENSITY MATRIX CONV=  1.00E-05
     MEMORY REQUIRED FOR RHF ITERS=    104921 WORDS.

 ITER EX DEM     TOTAL ENERGY        E CHANGE  DENSITY CHANGE    DIIS ERROR
   1  0  0     -230.1939667023  -230.1939667023   0.181702765   0.537085284
          * * *   INITIATING DIIS PROCEDURE   * * *
   2  1  0     -230.6703334592    -0.4763667568   0.054022281   0.108913052
   3  2  0     -230.6979071647    -0.0275737056   0.012985816   0.043418435
   4  3  0     -230.7018174245    -0.0039102598   0.005911031   0.010268913
   5  4  0     -230.7021602739    -0.0003428494   0.000481583   0.001029396
   6  5  0     -230.7021636536    -0.0000033797   0.000063126   0.000082311
   7  6  0     -230.7021636759    -0.0000000223   0.000005404   0.000004855
   8  7  0     -230.7021636761    -0.0000000002   0.000000733   0.000000816
   9  8  0     -230.7021636761    -0.0000000000   0.000000050   0.000000069

          -----------------
          DENSITY CONVERGED
          -----------------
     TIME TO FORM FOCK OPERATORS=       0.1 SECONDS (       0.0 SEC/ITER)
     TIME TO SOLVE SCF EQUATIONS=       0.1 SECONDS (       0.0 SEC/ITER)

 FINAL RHF ENERGY IS     -230.7021636761 AFTER   9 ITERATIONS

          ------------
          EIGENVECTORS
          ------------

                      1          2          3          4          5
                  -11.2329   -11.2324   -11.2324   -11.2311   -11.2311
                     A1G        E1U        E1U        E2G        E2G 
    1  C  1  S    0.406257  -0.000000   0.574691   0.574988  -0.000000
    2  C  1  S    0.011063  -0.000000   0.015991   0.016125  -0.000000
    3  C  1  X   -0.000000   0.000138  -0.000000   0.000000   0.000127
    4  C  1  Y   -0.000032  -0.000000   0.000090   0.000209  -0.000000
    5  C  1  Z   -0.000000  -0.000000  -0.000000   0.000000  -0.000000
    6  C  1  S   -0.002186  -0.000000  -0.004974  -0.009780  -0.000000
    7  C  1  X   -0.000000  -0.001240  -0.000000   0.000000  -0.001229
    8  C  1  Y    0.000320  -0.000000  -0.000239  -0.001686  -0.000000
    9  C  1  Z   -0.000000  -0.000000  -0.000000   0.000000  -0.000000
   10  C  1 XX   -0.000943  -0.000000  -0.001186  -0.000610  -0.000000
   11  C  1 YY   -0.000905  -0.000000  -0.001257  -0.000933  -0.000000
   12  C  1 ZZ   -0.001087  -0.000000  -0.001414  -0.001328  -0.000000
   13  C  1 XY   -0.000000   0.000020  -0.000000   0.000000   0.000136
   14  C  1 XZ   -0.000000  -0.000000  -0.000000   0.000000  -0.000000
   15  C  1 YZ   -0.000000  -0.000000  -0.000000   0.000000  -0.000000
   16  C  2  S    0.406257  -0.497697   0.287345  -0.287494  -0.497954
   17  C  2  S    0.011063  -0.013848   0.007995  -0.008062  -0.013965
   18  C  2  X    0.000027   0.000102   0.000021   0.000145   0.000125
   19  C  2  Y   -0.000016   0.000021   0.000126   0.000043  -0.000145
   20  C  2  Z   -0.000000  -0.000000  -0.000000   0.000000  -0.000000
   21  C  2  S   -0.002186   0.004307  -0.002487   0.004890   0.008469
   22  C  2  X   -0.000277  -0.000489  -0.000433  -0.001262  -0.000958
   23  C  2  Y    0.000160  -0.000433  -0.000989  -0.000500   0.001262
   24  C  2  Z   -0.000000  -0.000000  -0.000000   0.000000  -0.000000
   25  C  2 XX   -0.000914   0.001065  -0.000633   0.000338   0.000789
   26  C  2 YY   -0.000934   0.001050  -0.000589   0.000433   0.000547
   27  C  2 ZZ   -0.001087   0.001225  -0.000707   0.000664   0.001150
   28  C  2 XY   -0.000019  -0.000036   0.000009  -0.000139  -0.000106
   29  C  2 XZ   -0.000000  -0.000000  -0.000000   0.000000  -0.000000
   30  C  2 YZ   -0.000000  -0.000000  -0.000000   0.000000  -0.000000
   31  C  3  S    0.406257  -0.497697  -0.287345  -0.287494   0.497954
   32  C  3  S    0.011063  -0.013848  -0.007995  -0.008062   0.013965
   33  C  3  X    0.000027   0.000102  -0.000021   0.000145  -0.000125
   34  C  3  Y    0.000016  -0.000021   0.000126  -0.000043  -0.000145
   35  C  3  Z   -0.000000  -0.000000  -0.000000   0.000000  -0.000000
   36  C  3  S   -0.002186   0.004307   0.002487   0.004890  -0.008469
   37  C  3  X   -0.000277  -0.000489   0.000433  -0.001262   0.000958
   38  C  3  Y   -0.000160   0.000433  -0.000989   0.000500   0.001262
   39  C  3  Z   -0.000000  -0.000000  -0.000000   0.000000  -0.000000
   40  C  3 XX   -0.000914   0.001065   0.000633   0.000338  -0.000789
   41  C  3 YY   -0.000934   0.001050   0.000589   0.000433  -0.000547
   42  C  3 ZZ   -0.001087   0.001225   0.000707   0.000664  -0.001150
   43  C  3 XY    0.000019   0.000036   0.000009   0.000139  -0.000106
   44  C  3 XZ   -0.000000  -0.000000  -0.000000   0.000000  -0.000000
   45  C  3 YZ   -0.000000  -0.000000  -0.000000   0.000000  -0.000000
   46  C  4  S    0.406257  -0.000000  -0.574691   0.574988  -0.000000
   47  C  4  S    0.011063  -0.000000  -0.015991   0.016125  -0.000000
   48  C  4  X   -0.000000   0.000138  -0.000000   0.000000  -0.000127
   49  C  4  Y    0.000032  -0.000000   0.000090  -0.000209  -0.000000
   50  C  4  Z   -0.000000  -0.000000  -0.000000   0.000000  -0.000000
   51  C  4  S   -0.002186  -0.000000   0.004974  -0.009780  -0.000000
   52  C  4  X   -0.000000  -0.001240  -0.000000   0.000000   0.001229
   53  C  4  Y   -0.000320  -0.000000  -0.000239   0.001686  -0.000000
   54  C  4  Z   -0.000000  -0.000000  -0.000000   0.000000  -0.000000
   55  C  4 XX   -0.000943  -0.000000   0.001186  -0.000610  -0.000000
   56  C  4 YY   -0.000905  -0.000000   0.001257  -0.000933  -0.000000
   57  C  4 ZZ   -0.001087  -0.000000   0.001414  -0.001328  -0.000000
   58  C  4 XY   -0.000000  -0.000020  -0.000000   0.000000   0.000136
   59  C  4 XZ   -0.000000  -0.000000  -0.000000   0.000000  -0.000000
   60  C  4 YZ   -0.000000  -0.000000  -0.000000   0.000000  -0.000000
   61  C  5  S    0.406257   0.497697  -0.287345  -0.287494  -0.497954
   62  C  5  S    0.011063   0.013848  -0.007995  -0.008062  -0.013965
   63  C  5  X   -0.000027   0.000102   0.000021  -0.000145  -0.000125
   64  C  5  Y    0.000016   0.000021   0.000126  -0.000043   0.000145
   65  C  5  Z   -0.000000  -0.000000  -0.000000   0.000000  -0.000000
   66  C  5  S   -0.002186  -0.004307   0.002487   0.004890   0.008469
   67  C  5  X    0.000277  -0.000489  -0.000433   0.001262   0.000958
   68  C  5  Y   -0.000160  -0.000433  -0.000989   0.000500  -0.001262
   69  C  5  Z   -0.000000  -0.000000  -0.000000   0.000000  -0.000000
   70  C  5 XX   -0.000914  -0.001065   0.000633   0.000338   0.000789
   71  C  5 YY   -0.000934  -0.001050   0.000589   0.000433   0.000547
   72  C  5 ZZ   -0.001087  -0.001225   0.000707   0.000664   0.001150
   73  C  5 XY   -0.000019   0.000036  -0.000009  -0.000139  -0.000106
   74  C  5 XZ   -0.000000  -0.000000  -0.000000   0.000000  -0.000000
   75  C  5 YZ   -0.000000  -0.000000  -0.000000   0.000000  -0.000000
   76  C  6  S    0.406257   0.497697   0.287345  -0.287494   0.497954
   77  C  6  S    0.011063   0.013848   0.007995  -0.008062   0.013965
   78  C  6  X   -0.000027   0.000102  -0.000021  -0.000145   0.000125
   79  C  6  Y   -0.000016  -0.000021   0.000126   0.000043   0.000145
   80  C  6  Z   -0.000000  -0.000000  -0.000000   0.000000  -0.000000
   81  C  6  S   -0.002186  -0.004307  -0.002487   0.004890  -0.008469
   82  C  6  X    0.000277  -0.000489   0.000433   0.001262  -0.000958
   83  C  6  Y    0.000160   0.000433  -0.000989  -0.000500  -0.001262
   84  C  6  Z   -0.000000  -0.000000  -0.000000   0.000000  -0.000000
   85  C  6 XX   -0.000914  -0.001065  -0.000633   0.000338  -0.000789
   86  C  6 YY   -0.000934  -0.001050  -0.000589   0.000433  -0.000547
   87  C  6 ZZ   -0.001087  -0.001225  -0.000707   0.000664  -0.001150
   88  C  6 XY    0.000019  -0.000036  -0.000009   0.000139  -0.000106
   89  C  6 XZ   -0.000000  -0.000000  -0.000000   0.000000  -0.000000
   90  C  6 YZ   -0.000000  -0.000000  -0.000000   0.000000  -0.000000
   91  H  7  S   -0.000104  -0.000000  -0.000128  -0.000080  -0.000000
   92  H  7  S    0.000823  -0.000000   0.000907   0.000834  -0.000000
   93  H  8  S   -0.000104   0.000111  -0.000064   0.000040   0.000070
   94  H  8  S    0.000823  -0.000786   0.000454  -0.000417  -0.000723
   95  H  9  S   -0.000104   0.000111   0.000064   0.000040  -0.000070
   96  H  9  S    0.000823  -0.000786  -0.000454  -0.000417   0.000723
   97  H 10  S   -0.000104  -0.000000   0.000128  -0.000080  -0.000000
   98  H 10  S    0.000823  -0.000000  -0.000907   0.000834  -0.000000
   99  H 11  S   -0.000104  -0.000111   0.000064   0.000040   0.000070
  100  H 11  S    0.000823   0.000786  -0.000454  -0.000417  -0.000723
  101  H 12  S   -0.000104  -0.000111  -0.000064   0.000040  -0.000070
  102  H 12  S    0.000823   0.000786   0.000454  -0.000417   0.000723

                      6          7          8          9         10
                  -11.2305    -1.1458    -1.0091    -1.0091    -0.8171
                     B2U        A1G        E1U        E1U        E2G 
    1  C  1  S    0.406753  -0.092468  -0.000000  -0.128452  -0.100095
    2  C  1  S    0.011679   0.175247  -0.000000   0.247502   0.199747
    3  C  1  X    0.000000   0.000000  -0.115580  -0.000000  -0.000000
    4  C  1  Y    0.000222   0.060483  -0.000000   0.028702  -0.062829
    5  C  1  Z    0.000000   0.000000  -0.000000  -0.000000  -0.000000
    6  C  1  S   -0.015344   0.111169  -0.000000   0.192298   0.167299
    7  C  1  X    0.000000   0.000000  -0.016505  -0.000000  -0.000000
    8  C  1  Y   -0.005531   0.006822  -0.000000  -0.004727  -0.058643
    9  C  1  Z    0.000000   0.000000  -0.000000  -0.000000  -0.000000
   10  C  1 XX   -0.000123   0.008311  -0.000000   0.010150   0.000962
   11  C  1 YY   -0.000407   0.005514  -0.000000   0.007225   0.010515
   12  C  1 ZZ   -0.000786  -0.008378  -0.000000  -0.010181  -0.007080
   13  C  1 XY    0.000000   0.000000  -0.011932  -0.000000  -0.000000
   14  C  1 XZ    0.000000   0.000000  -0.000000  -0.000000  -0.000000
   15  C  1 YZ    0.000000   0.000000  -0.000000  -0.000000  -0.000000
   16  C  2  S   -0.406753  -0.092468   0.111243  -0.064226   0.050048
   17  C  2  S   -0.011679   0.175247  -0.214343   0.123751  -0.099874
   18  C  2  X    0.000192  -0.052380  -0.007368  -0.062476  -0.117168
   19  C  2  Y   -0.000111   0.030242  -0.062476  -0.079510  -0.140113
   20  C  2  Z    0.000000   0.000000  -0.000000  -0.000000  -0.000000
   21  C  2  S    0.015344   0.111169  -0.166535   0.096149  -0.083649
   22  C  2  X   -0.004790  -0.005908  -0.007671  -0.005100  -0.048123
   23  C  2  Y    0.002765   0.003411  -0.005100  -0.013560  -0.024709
   24  C  2  Z    0.000000   0.000000  -0.000000  -0.000000  -0.000000
   25  C  2 XX    0.000336   0.006213  -0.002416   0.011729   0.004016
   26  C  2 YY    0.000194   0.007612  -0.012632  -0.003041  -0.009754
   27  C  2 ZZ    0.000786  -0.008378   0.008817  -0.005090   0.003540
   28  C  2 XY   -0.000142   0.001398   0.001717   0.005898   0.007774
   29  C  2 XZ    0.000000   0.000000  -0.000000  -0.000000  -0.000000
   30  C  2 YZ    0.000000   0.000000  -0.000000  -0.000000  -0.000000
   31  C  3  S    0.406753  -0.092468   0.111243   0.064226   0.050048
   32  C  3  S    0.011679   0.175247  -0.214343  -0.123751  -0.099874
   33  C  3  X   -0.000192  -0.052380  -0.007368   0.062476  -0.117168
   34  C  3  Y   -0.000111  -0.030242   0.062476  -0.079510   0.140113
   35  C  3  Z    0.000000   0.000000  -0.000000  -0.000000  -0.000000
   36  C  3  S   -0.015344   0.111169  -0.166535  -0.096149  -0.083649
   37  C  3  X    0.004790  -0.005908  -0.007671   0.005100  -0.048123
   38  C  3  Y    0.002765  -0.003411   0.005100  -0.013560   0.024709
   39  C  3  Z    0.000000   0.000000  -0.000000  -0.000000  -0.000000
   40  C  3 XX   -0.000336   0.006213  -0.002416  -0.011729   0.004016
   41  C  3 YY   -0.000194   0.007612  -0.012632   0.003041  -0.009754
   42  C  3 ZZ   -0.000786  -0.008378   0.008817   0.005090   0.003540
   43  C  3 XY   -0.000142  -0.001398  -0.001717   0.005898  -0.007774
   44  C  3 XZ    0.000000   0.000000  -0.000000  -0.000000  -0.000000
   45  C  3 YZ    0.000000   0.000000  -0.000000  -0.000000  -0.000000
   46  C  4  S   -0.406753  -0.092468  -0.000000   0.128452  -0.100095
   47  C  4  S   -0.011679   0.175247  -0.000000  -0.247502   0.199747
   48  C  4  X    0.000000   0.000000  -0.115580  -0.000000  -0.000000
   49  C  4  Y    0.000222  -0.060483  -0.000000   0.028702   0.062829
   50  C  4  Z    0.000000   0.000000  -0.000000  -0.000000  -0.000000
   51  C  4  S    0.015344   0.111169  -0.000000  -0.192298   0.167299
   52  C  4  X    0.000000   0.000000  -0.016505  -0.000000  -0.000000
   53  C  4  Y   -0.005531  -0.006822  -0.000000  -0.004727   0.058643
   54  C  4  Z    0.000000   0.000000  -0.000000  -0.000000  -0.000000
   55  C  4 XX    0.000123   0.008311  -0.000000  -0.010150   0.000962
   56  C  4 YY    0.000407   0.005514  -0.000000  -0.007225   0.010515
   57  C  4 ZZ    0.000786  -0.008378  -0.000000   0.010181  -0.007080
   58  C  4 XY    0.000000   0.000000   0.011932  -0.000000  -0.000000
   59  C  4 XZ    0.000000   0.000000  -0.000000  -0.000000  -0.000000
   60  C  4 YZ    0.000000   0.000000  -0.000000  -0.000000  -0.000000
   61  C  5  S    0.406753  -0.092468  -0.111243   0.064226   0.050048
   62  C  5  S    0.011679   0.175247   0.214343  -0.123751  -0.099874
   63  C  5  X    0.000192   0.052380  -0.007368  -0.062476   0.117168
   64  C  5  Y   -0.000111  -0.030242  -0.062476  -0.079510   0.140113
   65  C  5  Z    0.000000   0.000000  -0.000000  -0.000000  -0.000000
   66  C  5  S   -0.015344   0.111169   0.166535  -0.096149  -0.083649
   67  C  5  X   -0.004790   0.005908  -0.007671  -0.005100   0.048123
   68  C  5  Y    0.002765  -0.003411  -0.005100  -0.013560   0.024709
   69  C  5  Z    0.000000   0.000000  -0.000000  -0.000000  -0.000000
   70  C  5 XX   -0.000336   0.006213   0.002416  -0.011729   0.004016
   71  C  5 YY   -0.000194   0.007612   0.012632   0.003041  -0.009754
   72  C  5 ZZ   -0.000786  -0.008378  -0.008817   0.005090   0.003540
   73  C  5 XY    0.000142   0.001398  -0.001717  -0.005898   0.007774
   74  C  5 XZ    0.000000   0.000000  -0.000000  -0.000000  -0.000000
   75  C  5 YZ    0.000000   0.000000  -0.000000  -0.000000  -0.000000
   76  C  6  S   -0.406753  -0.092468  -0.111243  -0.064226   0.050048
   77  C  6  S   -0.011679   0.175247   0.214343   0.123751  -0.099874
   78  C  6  X   -0.000192   0.052380  -0.007368   0.062476   0.117168
   79  C  6  Y   -0.000111   0.030242   0.062476  -0.079510  -0.140113
   80  C  6  Z    0.000000   0.000000  -0.000000  -0.000000  -0.000000
   81  C  6  S    0.015344   0.111169   0.166535   0.096149  -0.083649
   82  C  6  X    0.004790   0.005908  -0.007671   0.005100   0.048123
   83  C  6  Y    0.002765   0.003411   0.005100  -0.013560  -0.024709
   84  C  6  Z    0.000000   0.000000  -0.000000  -0.000000  -0.000000
   85  C  6 XX    0.000336   0.006213   0.002416   0.011729   0.004016
   86  C  6 YY    0.000194   0.007612   0.012632  -0.003041  -0.009754
   87  C  6 ZZ    0.000786  -0.008378  -0.008817  -0.005090   0.003540
   88  C  6 XY    0.000142  -0.001398   0.001717  -0.005898  -0.007774
   89  C  6 XZ    0.000000   0.000000  -0.000000  -0.000000  -0.000000
   90  C  6 YZ    0.000000   0.000000  -0.000000  -0.000000  -0.000000
   91  H  7  S   -0.000143   0.034463  -0.000000   0.075182   0.111252
   92  H  7  S   -0.000206   0.003567  -0.000000   0.014539   0.034306
   93  H  8  S    0.000143   0.034463  -0.065110   0.037591  -0.055626
   94  H  8  S    0.000206   0.003567  -0.012591   0.007270  -0.017153
   95  H  9  S   -0.000143   0.034463  -0.065110  -0.037591  -0.055626
   96  H  9  S   -0.000206   0.003567  -0.012591  -0.007270  -0.017153
   97  H 10  S    0.000143   0.034463  -0.000000  -0.075182   0.111252
   98  H 10  S    0.000206   0.003567  -0.000000  -0.014539   0.034306
   99  H 11  S   -0.000143   0.034463   0.065110  -0.037591  -0.055626
  100  H 11  S   -0.000206   0.003567   0.012591  -0.007270  -0.017153
  101  H 12  S    0.000143   0.034463   0.065110   0.037591  -0.055626
  102  H 12  S    0.000206   0.003567   0.012591   0.007270  -0.017153

                     11         12         13         14         15
                   -0.8171    -0.7023    -0.6351    -0.6131    -0.5811
                     E2G        A1G        B2U        B1U        E1U 
    1  C  1  S   -0.000000   0.007969  -0.055871  -0.000000  -0.000000
    2  C  1  S   -0.000000  -0.013906   0.114904  -0.000000  -0.000000
    3  C  1  X    0.207760   0.000000   0.000000   0.272497  -0.085451
    4  C  1  Y   -0.000000   0.193352  -0.131255  -0.000000  -0.000000
    5  C  1  Z   -0.000000   0.000000   0.000000  -0.000000  -0.000000
    6  C  1  S   -0.000000  -0.034954   0.055880  -0.000000  -0.000000
    7  C  1  X    0.052493   0.000000   0.000000   0.095392  -0.029321
    8  C  1  Y   -0.000000   0.071465  -0.132064  -0.000000  -0.000000
    9  C  1  Z   -0.000000   0.000000   0.000000  -0.000000  -0.000000
   10  C  1 XX   -0.000000  -0.000022  -0.012602  -0.000000  -0.000000
   11  C  1 YY   -0.000000  -0.005215   0.018882  -0.000000  -0.000000
   12  C  1 ZZ   -0.000000   0.000547  -0.003406  -0.000000  -0.000000
   13  C  1 XY    0.012439   0.000000   0.000000   0.009761  -0.014762
   14  C  1 XZ   -0.000000   0.000000   0.000000  -0.000000  -0.000000
   15  C  1 YZ   -0.000000   0.000000   0.000000  -0.000000  -0.000000
   16  C  2  S   -0.086685   0.007969   0.055871  -0.000000   0.017525
   17  C  2  S    0.172986  -0.013906  -0.114904  -0.000000  -0.039247
   18  C  2  X   -0.004818  -0.167448  -0.113670  -0.136248   0.198495
   19  C  2  Y   -0.117168   0.096676   0.065628  -0.235989  -0.163937
   20  C  2  Z   -0.000000   0.000000   0.000000  -0.000000  -0.000000
   21  C  2  S    0.144885  -0.034954  -0.055880  -0.000000  -0.024482
   22  C  2  X    0.030859  -0.061890  -0.114371  -0.047696   0.090245
   23  C  2  Y   -0.048123   0.035732   0.066032  -0.082612  -0.069032
   24  C  2  Z   -0.000000   0.000000   0.000000  -0.000000  -0.000000
   25  C  2 XX    0.011703  -0.003916  -0.011011   0.007321   0.014316
   26  C  2 YY   -0.001763  -0.001320   0.004731  -0.007321  -0.007486
   27  C  2 ZZ   -0.006132   0.000547   0.003406  -0.000000   0.000099
   28  C  2 XY   -0.001027   0.002596   0.015742   0.004881  -0.007040
   29  C  2 XZ   -0.000000   0.000000   0.000000  -0.000000  -0.000000
   30  C  2 YZ   -0.000000   0.000000   0.000000  -0.000000  -0.000000
   31  C  3  S    0.086685   0.007969  -0.055871  -0.000000   0.017525
   32  C  3  S   -0.172986  -0.013906   0.114904  -0.000000  -0.039247
   33  C  3  X    0.004818  -0.167448   0.113670  -0.136248   0.198495
   34  C  3  Y   -0.117168  -0.096676   0.065628   0.235989   0.163937
   35  C  3  Z   -0.000000   0.000000   0.000000  -0.000000  -0.000000
   36  C  3  S   -0.144885  -0.034954   0.055880  -0.000000  -0.024482
   37  C  3  X   -0.030859  -0.061890   0.114371  -0.047696   0.090245
   38  C  3  Y   -0.048123  -0.035732   0.066032   0.082612   0.069032
   39  C  3  Z   -0.000000   0.000000   0.000000  -0.000000  -0.000000
   40  C  3 XX   -0.011703  -0.003916   0.011011   0.007321   0.014316
   41  C  3 YY    0.001763  -0.001320  -0.004731  -0.007321  -0.007486
   42  C  3 ZZ    0.006132   0.000547  -0.003406  -0.000000   0.000099
   43  C  3 XY   -0.001027  -0.002596   0.015742  -0.004881   0.007040
   44  C  3 XZ   -0.000000   0.000000   0.000000  -0.000000  -0.000000
   45  C  3 YZ   -0.000000   0.000000   0.000000  -0.000000  -0.000000
   46  C  4  S   -0.000000   0.007969   0.055871  -0.000000  -0.000000
   47  C  4  S   -0.000000  -0.013906  -0.114904  -0.000000  -0.000000
   48  C  4  X   -0.207760   0.000000   0.000000   0.272497  -0.085451
   49  C  4  Y   -0.000000  -0.193352  -0.131255  -0.000000  -0.000000
   50  C  4  Z   -0.000000   0.000000   0.000000  -0.000000  -0.000000
   51  C  4  S   -0.000000  -0.034954  -0.055880  -0.000000  -0.000000
   52  C  4  X   -0.052493   0.000000   0.000000   0.095392  -0.029321
   53  C  4  Y   -0.000000  -0.071465  -0.132064  -0.000000  -0.000000
   54  C  4  Z   -0.000000   0.000000   0.000000  -0.000000  -0.000000
   55  C  4 XX   -0.000000  -0.000022   0.012602  -0.000000  -0.000000
   56  C  4 YY   -0.000000  -0.005215  -0.018882  -0.000000  -0.000000
   57  C  4 ZZ   -0.000000   0.000547   0.003406  -0.000000  -0.000000
   58  C  4 XY    0.012439   0.000000   0.000000  -0.009761   0.014762
   59  C  4 XZ   -0.000000   0.000000   0.000000  -0.000000  -0.000000
   60  C  4 YZ   -0.000000   0.000000   0.000000  -0.000000  -0.000000
   61  C  5  S   -0.086685   0.007969  -0.055871  -0.000000  -0.017525
   62  C  5  S    0.172986  -0.013906   0.114904  -0.000000   0.039247
   63  C  5  X    0.004818   0.167448  -0.113670  -0.136248   0.198495
   64  C  5  Y    0.117168  -0.096676   0.065628  -0.235989  -0.163937
   65  C  5  Z   -0.000000   0.000000   0.000000  -0.000000  -0.000000
   66  C  5  S    0.144885  -0.034954   0.055880  -0.000000   0.024482
   67  C  5  X   -0.030859   0.061890  -0.114371  -0.047696   0.090245
   68  C  5  Y    0.048123  -0.035732   0.066032  -0.082612  -0.069032
   69  C  5  Z   -0.000000   0.000000   0.000000  -0.000000  -0.000000
   70  C  5 XX    0.011703  -0.003916   0.011011  -0.007321  -0.014316
   71  C  5 YY   -0.001763  -0.001320  -0.004731   0.007321   0.007486
   72  C  5 ZZ   -0.006132   0.000547  -0.003406  -0.000000  -0.000099
   73  C  5 XY   -0.001027   0.002596  -0.015742  -0.004881   0.007040
   74  C  5 XZ   -0.000000   0.000000   0.000000  -0.000000  -0.000000
   75  C  5 YZ   -0.000000   0.000000   0.000000  -0.000000  -0.000000
   76  C  6  S    0.086685   0.007969   0.055871  -0.000000  -0.017525
   77  C  6  S   -0.172986  -0.013906  -0.114904  -0.000000   0.039247
   78  C  6  X   -0.004818   0.167448   0.113670  -0.136248   0.198495
   79  C  6  Y    0.117168   0.096676   0.065628   0.235989   0.163937
   80  C  6  Z   -0.000000   0.000000   0.000000  -0.000000  -0.000000
   81  C  6  S   -0.144885  -0.034954  -0.055880  -0.000000   0.024482
   82  C  6  X    0.030859   0.061890   0.114371  -0.047696   0.090245
   83  C  6  Y    0.048123   0.035732   0.066032   0.082612   0.069032
   84  C  6  Z   -0.000000   0.000000   0.000000  -0.000000  -0.000000
   85  C  6 XX   -0.011703  -0.003916  -0.011011  -0.007321  -0.014316
   86  C  6 YY    0.001763  -0.001320   0.004731   0.007321   0.007486
   87  C  6 ZZ    0.006132   0.000547   0.003406  -0.000000  -0.000099
   88  C  6 XY   -0.001027  -0.002596  -0.015742   0.004881  -0.007040
   89  C  6 XZ   -0.000000   0.000000   0.000000  -0.000000  -0.000000
   90  C  6 YZ   -0.000000   0.000000   0.000000  -0.000000  -0.000000
   91  H  7  S   -0.000000  -0.110819   0.136076  -0.000000  -0.000000
   92  H  7  S   -0.000000  -0.066299   0.067044  -0.000000  -0.000000
   93  H  8  S    0.096347  -0.110819  -0.136076  -0.000000   0.142516
   94  H  8  S    0.029710  -0.066299  -0.067044  -0.000000   0.110620
   95  H  9  S   -0.096347  -0.110819   0.136076  -0.000000   0.142516
   96  H  9  S   -0.029710  -0.066299   0.067044  -0.000000   0.110620
   97  H 10  S   -0.000000  -0.110819  -0.136076  -0.000000  -0.000000
   98  H 10  S   -0.000000  -0.066299  -0.067044  -0.000000  -0.000000
   99  H 11  S    0.096347  -0.110819   0.136076  -0.000000  -0.142516
  100  H 11  S    0.029710  -0.066299   0.067044  -0.000000  -0.110620
  101  H 12  S   -0.096347  -0.110819  -0.136076  -0.000000  -0.142516
  102  H 12  S   -0.029710  -0.066299  -0.067044  -0.000000  -0.110620

                     16         17         18         19         20
                   -0.5811    -0.4971    -0.4878    -0.4878    -0.3305
                     E1U        A2U        E2G        E2G        E1G 
    1  C  1  S   -0.020236  -0.000000   0.004355  -0.000000  -0.000000
    2  C  1  S    0.045319  -0.000000  -0.014860  -0.000000  -0.000000
    3  C  1  X   -0.000000  -0.000000   0.000000   0.255149  -0.000000
    4  C  1  Y    0.293144  -0.000000  -0.222531  -0.000000  -0.000000
    5  C  1  Z   -0.000000   0.210047   0.000000  -0.000000   0.314630
    6  C  1  S    0.028269  -0.000000   0.006809  -0.000000  -0.000000
    7  C  1  X   -0.000000  -0.000000   0.000000   0.111359  -0.000000
    8  C  1  Y    0.130101  -0.000000  -0.130663  -0.000000  -0.000000
    9  C  1  Z   -0.000000   0.136197   0.000000  -0.000000   0.266743
   10  C  1 XX    0.008447  -0.000000  -0.018364  -0.000000  -0.000000
   11  C  1 YY   -0.016334  -0.000000   0.026981  -0.000000  -0.000000
   12  C  1 ZZ   -0.000114  -0.000000  -0.000850  -0.000000  -0.000000
   13  C  1 XY   -0.000000  -0.000000   0.000000   0.015674  -0.000000
   14  C  1 XZ   -0.000000  -0.000000   0.000000  -0.000000  -0.000000
   15  C  1 YZ   -0.000000   0.012095   0.000000  -0.000000   0.009574
   16  C  2  S   -0.010118  -0.000000  -0.002178  -0.003772  -0.000000
   17  C  2  S    0.022659  -0.000000   0.007430   0.012869  -0.000000
   18  C  2  X   -0.163937  -0.000000   0.014124  -0.230685  -0.000000
   19  C  2  Y    0.009198  -0.000000   0.246994  -0.014124  -0.000000
   20  C  2  Z   -0.000000   0.210047   0.000000  -0.000000   0.157315
   21  C  2  S    0.014135  -0.000000  -0.003405  -0.005897  -0.000000
   22  C  2  X   -0.069032  -0.000000  -0.008359  -0.125837  -0.000000
   23  C  2  Y    0.010534  -0.000000   0.116185   0.008359  -0.000000
   24  C  2  Z   -0.000000   0.136197   0.000000  -0.000000   0.133371
   25  C  2 XX    0.004519  -0.000000  -0.018003  -0.007671  -0.000000
   26  C  2 YY   -0.008462  -0.000000   0.013694   0.000208  -0.000000
   27  C  2 ZZ   -0.000057  -0.000000   0.000425   0.000736  -0.000000
   28  C  2 XY    0.012588  -0.000000   0.004549   0.023553  -0.000000
   29  C  2 XZ   -0.000000  -0.010474   0.000000  -0.000000  -0.013601
   30  C  2 YZ   -0.000000   0.006047   0.000000  -0.000000  -0.013984
   31  C  3  S    0.010118  -0.000000  -0.002178   0.003772  -0.000000
   32  C  3  S   -0.022659  -0.000000   0.007430  -0.012869  -0.000000
   33  C  3  X    0.163937  -0.000000   0.014124   0.230685  -0.000000
   34  C  3  Y    0.009198  -0.000000  -0.246994  -0.014124  -0.000000
   35  C  3  Z   -0.000000   0.210047   0.000000  -0.000000  -0.157315
   36  C  3  S   -0.014135  -0.000000  -0.003405   0.005897  -0.000000
   37  C  3  X    0.069032  -0.000000  -0.008359   0.125837  -0.000000
   38  C  3  Y    0.010534  -0.000000  -0.116185   0.008359  -0.000000
   39  C  3  Z   -0.000000   0.136197   0.000000  -0.000000  -0.133371
   40  C  3 XX   -0.004519  -0.000000  -0.018003   0.007671  -0.000000
   41  C  3 YY    0.008462  -0.000000   0.013694  -0.000208  -0.000000
   42  C  3 ZZ    0.000057  -0.000000   0.000425  -0.000736  -0.000000
   43  C  3 XY    0.012588  -0.000000  -0.004549   0.023553  -0.000000
   44  C  3 XZ   -0.000000  -0.010474   0.000000  -0.000000   0.013601
   45  C  3 YZ   -0.000000  -0.006047   0.000000  -0.000000  -0.013984
   46  C  4  S    0.020236  -0.000000   0.004355  -0.000000  -0.000000
   47  C  4  S   -0.045319  -0.000000  -0.014860  -0.000000  -0.000000
   48  C  4  X   -0.000000  -0.000000   0.000000  -0.255149  -0.000000
   49  C  4  Y    0.293144  -0.000000   0.222531  -0.000000  -0.000000
   50  C  4  Z   -0.000000   0.210047   0.000000  -0.000000  -0.314630
   51  C  4  S   -0.028269  -0.000000   0.006809  -0.000000  -0.000000
   52  C  4  X   -0.000000  -0.000000   0.000000  -0.111359  -0.000000
   53  C  4  Y    0.130101  -0.000000   0.130663  -0.000000  -0.000000
   54  C  4  Z   -0.000000   0.136197   0.000000  -0.000000  -0.266743
   55  C  4 XX   -0.008447  -0.000000  -0.018364  -0.000000  -0.000000
   56  C  4 YY    0.016334  -0.000000   0.026981  -0.000000  -0.000000
   57  C  4 ZZ    0.000114  -0.000000  -0.000850  -0.000000  -0.000000
   58  C  4 XY   -0.000000  -0.000000   0.000000   0.015674  -0.000000
   59  C  4 XZ   -0.000000  -0.000000   0.000000  -0.000000  -0.000000
   60  C  4 YZ   -0.000000  -0.012095   0.000000  -0.000000   0.009574
   61  C  5  S    0.010118  -0.000000  -0.002178  -0.003772  -0.000000
   62  C  5  S   -0.022659  -0.000000   0.007430   0.012869  -0.000000
   63  C  5  X   -0.163937  -0.000000  -0.014124   0.230685  -0.000000
   64  C  5  Y    0.009198  -0.000000  -0.246994   0.014124  -0.000000
   65  C  5  Z   -0.000000   0.210047   0.000000  -0.000000  -0.157315
   66  C  5  S   -0.014135  -0.000000  -0.003405  -0.005897  -0.000000
   67  C  5  X   -0.069032  -0.000000   0.008359   0.125837  -0.000000
   68  C  5  Y    0.010534  -0.000000  -0.116185  -0.008359  -0.000000
   69  C  5  Z   -0.000000   0.136197   0.000000  -0.000000  -0.133371
   70  C  5 XX   -0.004519  -0.000000  -0.018003  -0.007671  -0.000000
   71  C  5 YY    0.008462  -0.000000   0.013694   0.000208  -0.000000
   72  C  5 ZZ    0.000057  -0.000000   0.000425   0.000736  -0.000000
   73  C  5 XY   -0.012588  -0.000000   0.004549   0.023553  -0.000000
   74  C  5 XZ   -0.000000   0.010474   0.000000  -0.000000  -0.013601
   75  C  5 YZ   -0.000000  -0.006047   0.000000  -0.000000  -0.013984
   76  C  6  S   -0.010118  -0.000000  -0.002178   0.003772  -0.000000
   77  C  6  S    0.022659  -0.000000   0.007430  -0.012869  -0.000000
   78  C  6  X    0.163937  -0.000000  -0.014124  -0.230685  -0.000000
   79  C  6  Y    0.009198  -0.000000   0.246994   0.014124  -0.000000
   80  C  6  Z   -0.000000   0.210047   0.000000  -0.000000   0.157315
   81  C  6  S    0.014135  -0.000000  -0.003405   0.005897  -0.000000
   82  C  6  X    0.069032  -0.000000   0.008359  -0.125837  -0.000000
   83  C  6  Y    0.010534  -0.000000   0.116185  -0.008359  -0.000000
   84  C  6  Z   -0.000000   0.136197   0.000000  -0.000000   0.133371
   85  C  6 XX    0.004519  -0.000000  -0.018003   0.007671  -0.000000
   86  C  6 YY   -0.008462  -0.000000   0.013694  -0.000208  -0.000000
   87  C  6 ZZ   -0.000057  -0.000000   0.000425  -0.000736  -0.000000
   88  C  6 XY   -0.012588  -0.000000  -0.004549   0.023553  -0.000000
   89  C  6 XZ   -0.000000   0.010474   0.000000  -0.000000   0.013601
   90  C  6 YZ   -0.000000   0.006047   0.000000  -0.000000  -0.013984
   91  H  7  S   -0.164564  -0.000000   0.163575  -0.000000  -0.000000
   92  H  7  S   -0.127733  -0.000000   0.145119  -0.000000  -0.000000
   93  H  8  S   -0.082282  -0.000000  -0.081788  -0.141660  -0.000000
   94  H  8  S   -0.063867  -0.000000  -0.072560  -0.125677  -0.000000
   95  H  9  S    0.082282  -0.000000  -0.081788   0.141660  -0.000000
   96  H  9  S    0.063867  -0.000000  -0.072560   0.125677  -0.000000
   97  H 10  S    0.164564  -0.000000   0.163575  -0.000000  -0.000000
   98  H 10  S    0.127733  -0.000000   0.145119  -0.000000  -0.000000
   99  H 11  S    0.082282  -0.000000  -0.081788  -0.141660  -0.000000
  100  H 11  S    0.063867  -0.000000  -0.072560  -0.125677  -0.000000
  101  H 12  S   -0.082282  -0.000000  -0.081788   0.141660  -0.000000
  102  H 12  S   -0.063867  -0.000000  -0.072560   0.125677  -0.000000

                     21         22         23         24         25
                   -0.3305     0.1484     0.1484     0.2315     0.2914
                     E1G        E2U        E2U        A1G        E1U 
    1  C  1  S    0.000000   0.000000   0.000000   0.037768   0.000000
    2  C  1  S    0.000000   0.000000   0.000000  -0.047137   0.000000
    3  C  1  X    0.000000   0.000000   0.000000   0.000000   0.017027
    4  C  1  Y    0.000000   0.000000   0.000000   0.108488   0.000000
    5  C  1  Z    0.000000   0.000000   0.310103   0.000000   0.000000
    6  C  1  S    0.000000   0.000000   0.000000  -0.549286   0.000000
    7  C  1  X    0.000000   0.000000   0.000000   0.000000  -0.301360
    8  C  1  Y    0.000000   0.000000   0.000000   0.306811   0.000000
    9  C  1  Z    0.000000   0.000000   0.571352   0.000000   0.000000
   10  C  1 XX    0.000000   0.000000   0.000000  -0.011974   0.000000
   11  C  1 YY    0.000000   0.000000   0.000000   0.017993   0.000000
   12  C  1 ZZ    0.000000   0.000000   0.000000   0.000255   0.000000
   13  C  1 XY    0.000000   0.000000   0.000000   0.000000  -0.011900
   14  C  1 XZ   -0.021837  -0.033097   0.000000   0.000000   0.000000
   15  C  1 YZ    0.000000   0.000000  -0.009634   0.000000   0.000000
   16  C  2  S    0.000000   0.000000   0.000000   0.037768  -0.032894
   17  C  2  S    0.000000   0.000000   0.000000  -0.047137   0.012014
   18  C  2  X    0.000000   0.000000   0.000000  -0.093953   0.157772
   19  C  2  Y    0.000000   0.000000   0.000000   0.054244  -0.081259
   20  C  2  Z   -0.272478  -0.268557  -0.155051   0.000000   0.000000
   21  C  2  S    0.000000   0.000000   0.000000  -0.549286   0.963937
   22  C  2  X    0.000000   0.000000   0.000000  -0.265706   0.436997
   23  C  2  Y    0.000000   0.000000   0.000000   0.153405  -0.426290
   24  C  2  Z   -0.231006  -0.494806  -0.285676   0.000000   0.000000
   25  C  2 XX    0.000000   0.000000   0.000000   0.010501   0.002087
   26  C  2 YY    0.000000   0.000000   0.000000  -0.004482  -0.001325
   27  C  2 ZZ    0.000000   0.000000   0.000000   0.000255  -0.003892
   28  C  2 XY    0.000000   0.000000   0.000000  -0.014983   0.008488
   29  C  2 XZ    0.001721   0.001049  -0.018503   0.000000   0.000000
   30  C  2 YZ   -0.013601   0.018503  -0.022414   0.000000   0.000000
   31  C  3  S    0.000000   0.000000   0.000000   0.037768  -0.032894
   32  C  3  S    0.000000   0.000000   0.000000  -0.047137   0.012014
   33  C  3  X    0.000000   0.000000   0.000000  -0.093953   0.157772
   34  C  3  Y    0.000000   0.000000   0.000000  -0.054244   0.081259
   35  C  3  Z   -0.272478   0.268557  -0.155051   0.000000   0.000000
   36  C  3  S    0.000000   0.000000   0.000000  -0.549286   0.963937
   37  C  3  X    0.000000   0.000000   0.000000  -0.265706   0.436997
   38  C  3  Y    0.000000   0.000000   0.000000  -0.153405   0.426290
   39  C  3  Z   -0.231006   0.494806  -0.285676   0.000000   0.000000
   40  C  3 XX    0.000000   0.000000   0.000000   0.010501   0.002087
   41  C  3 YY    0.000000   0.000000   0.000000  -0.004482  -0.001325
   42  C  3 ZZ    0.000000   0.000000   0.000000   0.000255  -0.003892
   43  C  3 XY    0.000000   0.000000   0.000000   0.014983  -0.008488
   44  C  3 XZ    0.001721  -0.001049  -0.018503   0.000000   0.000000
   45  C  3 YZ    0.013601   0.018503   0.022414   0.000000   0.000000
   46  C  4  S    0.000000   0.000000   0.000000   0.037768   0.000000
   47  C  4  S    0.000000   0.000000   0.000000  -0.047137   0.000000
   48  C  4  X    0.000000   0.000000   0.000000   0.000000   0.017027
   49  C  4  Y    0.000000   0.000000   0.000000  -0.108488   0.000000
   50  C  4  Z    0.000000   0.000000   0.310103   0.000000   0.000000
   51  C  4  S    0.000000   0.000000   0.000000  -0.549286   0.000000
   52  C  4  X    0.000000   0.000000   0.000000   0.000000  -0.301360
   53  C  4  Y    0.000000   0.000000   0.000000  -0.306811   0.000000
   54  C  4  Z    0.000000   0.000000   0.571352   0.000000   0.000000
   55  C  4 XX    0.000000   0.000000   0.000000  -0.011974   0.000000
   56  C  4 YY    0.000000   0.000000   0.000000   0.017993   0.000000
   57  C  4 ZZ    0.000000   0.000000   0.000000   0.000255   0.000000
   58  C  4 XY    0.000000   0.000000   0.000000   0.000000   0.011900
   59  C  4 XZ   -0.021837   0.033097   0.000000   0.000000   0.000000
   60  C  4 YZ    0.000000   0.000000   0.009634   0.000000   0.000000
   61  C  5  S    0.000000   0.000000   0.000000   0.037768   0.032894
   62  C  5  S    0.000000   0.000000   0.000000  -0.047137  -0.012014
   63  C  5  X    0.000000   0.000000   0.000000   0.093953   0.157772
   64  C  5  Y    0.000000   0.000000   0.000000  -0.054244  -0.081259
   65  C  5  Z    0.272478  -0.268557  -0.155051   0.000000   0.000000
   66  C  5  S    0.000000   0.000000   0.000000  -0.549286  -0.963937
   67  C  5  X    0.000000   0.000000   0.000000   0.265706   0.436997
   68  C  5  Y    0.000000   0.000000   0.000000  -0.153405  -0.426290
   69  C  5  Z    0.231006  -0.494806  -0.285676   0.000000   0.000000
   70  C  5 XX    0.000000   0.000000   0.000000   0.010501  -0.002087
   71  C  5 YY    0.000000   0.000000   0.000000  -0.004482   0.001325
   72  C  5 ZZ    0.000000   0.000000   0.000000   0.000255   0.003892
   73  C  5 XY    0.000000   0.000000   0.000000  -0.014983  -0.008488
   74  C  5 XZ    0.001721  -0.001049   0.018503   0.000000   0.000000
   75  C  5 YZ   -0.013601  -0.018503   0.022414   0.000000   0.000000
   76  C  6  S    0.000000   0.000000   0.000000   0.037768   0.032894
   77  C  6  S    0.000000   0.000000   0.000000  -0.047137  -0.012014
   78  C  6  X    0.000000   0.000000   0.000000   0.093953   0.157772
   79  C  6  Y    0.000000   0.000000   0.000000   0.054244   0.081259
   80  C  6  Z    0.272478   0.268557  -0.155051   0.000000   0.000000
   81  C  6  S    0.000000   0.000000   0.000000  -0.549286  -0.963937
   82  C  6  X    0.000000   0.000000   0.000000   0.265706   0.436997
   83  C  6  Y    0.000000   0.000000   0.000000   0.153405   0.426290
   84  C  6  Z    0.231006   0.494806  -0.285676   0.000000   0.000000
   85  C  6 XX    0.000000   0.000000   0.000000   0.010501  -0.002087
   86  C  6 YY    0.000000   0.000000   0.000000  -0.004482   0.001325
   87  C  6 ZZ    0.000000   0.000000   0.000000   0.000255   0.003892
   88  C  6 XY    0.000000   0.000000   0.000000   0.014983   0.008488
   89  C  6 XZ    0.001721   0.001049   0.018503   0.000000   0.000000
   90  C  6 YZ    0.013601  -0.018503  -0.022414   0.000000   0.000000
   91  H  7  S    0.000000   0.000000   0.000000   0.036026   0.000000
   92  H  7  S    0.000000   0.000000   0.000000   0.772474   0.000000
   93  H  8  S    0.000000   0.000000   0.000000   0.036026  -0.008089
   94  H  8  S    0.000000   0.000000   0.000000   0.772474  -1.148765
   95  H  9  S    0.000000   0.000000   0.000000   0.036026  -0.008089
   96  H  9  S    0.000000   0.000000   0.000000   0.772474  -1.148765
   97  H 10  S    0.000000   0.000000   0.000000   0.036026   0.000000
   98  H 10  S    0.000000   0.000000   0.000000   0.772474   0.000000
   99  H 11  S    0.000000   0.000000   0.000000   0.036026   0.008089
  100  H 11  S    0.000000   0.000000   0.000000   0.772474   1.148765
  101  H 12  S    0.000000   0.000000   0.000000   0.036026   0.008089
  102  H 12  S    0.000000   0.000000   0.000000   0.772474   1.148765

                     26         27         28         29         30
                    0.2914     0.3312     0.3312     0.3348     0.3691
                     E1U        E2G        E2G        B2U        B1G 
    1  C  1  S    0.037982  -0.078235   0.000000   0.043907  -0.000000
    2  C  1  S   -0.013873   0.088974   0.000000  -0.145136  -0.000000
    3  C  1  X    0.000000  -0.000000   0.055096   0.000000  -0.000000
    4  C  1  Y    0.204687  -0.104375   0.000000   0.060511  -0.000000
    5  C  1  Z    0.000000  -0.000000   0.000000   0.000000   0.236187
    6  C  1  S   -1.113059   1.514086   0.000000   0.687942  -0.000000
    7  C  1  X    0.000000  -0.000000   0.417474   0.000000  -0.000000
    8  C  1  Y    0.683116  -0.771509   0.000000   1.658404  -0.000000
    9  C  1  Z    0.000000  -0.000000   0.000000   0.000000   0.685349
   10  C  1 XX   -0.006806  -0.008985   0.000000   0.018712  -0.000000
   11  C  1 YY    0.005926   0.007881   0.000000   0.004861  -0.000000
   12  C  1 ZZ    0.004494  -0.002705   0.000000  -0.010567  -0.000000
   13  C  1 XY    0.000000  -0.000000  -0.010347   0.000000  -0.000000
   14  C  1 XZ    0.000000  -0.000000   0.000000   0.000000  -0.000000
   15  C  1 YZ    0.000000  -0.000000   0.000000   0.000000  -0.016217
   16  C  2  S    0.018991   0.039118   0.067754  -0.043907  -0.000000
   17  C  2  S   -0.006936  -0.044487  -0.077054   0.145136  -0.000000
   18  C  2  X   -0.081259  -0.021338  -0.092055   0.052404  -0.000000
   19  C  2  Y    0.063942   0.067416   0.021338  -0.030255  -0.000000
   20  C  2  Z    0.000000  -0.000000   0.000000   0.000000  -0.236187
   21  C  2  S   -0.556529  -0.757043  -1.311237  -0.687942  -0.000000
   22  C  2  X   -0.426290  -0.153302  -0.683000   1.436220  -0.000000
   23  C  2  Y   -0.055241   0.505983   0.153302  -0.829202  -0.000000
   24  C  2  Z    0.000000  -0.000000   0.000000   0.000000  -0.685349
   25  C  2 XX    0.009101   0.004889  -0.007054  -0.008324  -0.000000
   26  C  2 YY   -0.009541  -0.004337   0.008010  -0.015249  -0.000000
   27  C  2 ZZ    0.002247   0.001352   0.002342   0.010567  -0.000000
   28  C  2 XY    0.001970   0.008697   0.004716  -0.006925  -0.000000
   29  C  2 XZ    0.000000  -0.000000   0.000000   0.000000  -0.014044
   30  C  2 YZ    0.000000  -0.000000   0.000000   0.000000   0.008108
   31  C  3  S   -0.018991   0.039118  -0.067754   0.043907  -0.000000
   32  C  3  S    0.006936  -0.044487   0.077054  -0.145136  -0.000000
   33  C  3  X    0.081259  -0.021338   0.092055  -0.052404  -0.000000
   34  C  3  Y    0.063942  -0.067416   0.021338  -0.030255  -0.000000
   35  C  3  Z    0.000000  -0.000000   0.000000   0.000000   0.236187
   36  C  3  S    0.556529  -0.757043   1.311237   0.687942  -0.000000
   37  C  3  X    0.426290  -0.153302   0.683000  -1.436220  -0.000000
   38  C  3  Y   -0.055241  -0.505983   0.153302  -0.829202  -0.000000
   39  C  3  Z    0.000000  -0.000000   0.000000   0.000000   0.685349
   40  C  3 XX   -0.009101   0.004889   0.007054   0.008324  -0.000000
   41  C  3 YY    0.009541  -0.004337  -0.008010   0.015249  -0.000000
   42  C  3 ZZ   -0.002247   0.001352  -0.002342  -0.010567  -0.000000
   43  C  3 XY    0.001970  -0.008697   0.004716  -0.006925  -0.000000
   44  C  3 XZ    0.000000  -0.000000   0.000000   0.000000   0.014044
   45  C  3 YZ    0.000000  -0.000000   0.000000   0.000000   0.008108
   46  C  4  S   -0.037982  -0.078235   0.000000  -0.043907  -0.000000
   47  C  4  S    0.013873   0.088974   0.000000   0.145136  -0.000000
   48  C  4  X    0.000000  -0.000000  -0.055096   0.000000  -0.000000
   49  C  4  Y    0.204687   0.104375   0.000000   0.060511  -0.000000
   50  C  4  Z    0.000000  -0.000000   0.000000   0.000000  -0.236187
   51  C  4  S    1.113059   1.514086   0.000000  -0.687942  -0.000000
   52  C  4  X    0.000000  -0.000000  -0.417474   0.000000  -0.000000
   53  C  4  Y    0.683116   0.771509   0.000000   1.658404  -0.000000
   54  C  4  Z    0.000000  -0.000000   0.000000   0.000000  -0.685349
   55  C  4 XX    0.006806  -0.008985   0.000000  -0.018712  -0.000000
   56  C  4 YY   -0.005926   0.007881   0.000000  -0.004861  -0.000000
   57  C  4 ZZ   -0.004494  -0.002705   0.000000   0.010567  -0.000000
   58  C  4 XY    0.000000  -0.000000  -0.010347   0.000000  -0.000000
   59  C  4 XZ    0.000000  -0.000000   0.000000   0.000000  -0.000000
   60  C  4 YZ    0.000000  -0.000000   0.000000   0.000000  -0.016217
   61  C  5  S   -0.018991   0.039118   0.067754   0.043907  -0.000000
   62  C  5  S    0.006936  -0.044487  -0.077054  -0.145136  -0.000000
   63  C  5  X   -0.081259   0.021338   0.092055   0.052404  -0.000000
   64  C  5  Y    0.063942  -0.067416  -0.021338  -0.030255  -0.000000
   65  C  5  Z    0.000000  -0.000000   0.000000   0.000000   0.236187
   66  C  5  S    0.556529  -0.757043  -1.311237   0.687942  -0.000000
   67  C  5  X   -0.426290   0.153302   0.683000   1.436220  -0.000000
   68  C  5  Y   -0.055241  -0.505983  -0.153302  -0.829202  -0.000000
   69  C  5  Z    0.000000  -0.000000   0.000000   0.000000   0.685349
   70  C  5 XX   -0.009101   0.004889  -0.007054   0.008324  -0.000000
   71  C  5 YY    0.009541  -0.004337   0.008010   0.015249  -0.000000
   72  C  5 ZZ   -0.002247   0.001352   0.002342  -0.010567  -0.000000
   73  C  5 XY   -0.001970   0.008697   0.004716   0.006925  -0.000000
   74  C  5 XZ    0.000000  -0.000000   0.000000   0.000000  -0.014044
   75  C  5 YZ    0.000000  -0.000000   0.000000   0.000000   0.008108
   76  C  6  S    0.018991   0.039118  -0.067754  -0.043907  -0.000000
   77  C  6  S   -0.006936  -0.044487   0.077054   0.145136  -0.000000
   78  C  6  X    0.081259   0.021338  -0.092055  -0.052404  -0.000000
   79  C  6  Y    0.063942   0.067416  -0.021338  -0.030255  -0.000000
   80  C  6  Z    0.000000  -0.000000   0.000000   0.000000  -0.236187
   81  C  6  S   -0.556529  -0.757043   1.311237  -0.687942  -0.000000
   82  C  6  X    0.426290   0.153302  -0.683000  -1.436220  -0.000000
   83  C  6  Y   -0.055241   0.505983  -0.153302  -0.829202  -0.000000
   84  C  6  Z    0.000000  -0.000000   0.000000   0.000000  -0.685349
   85  C  6 XX    0.009101   0.004889   0.007054  -0.008324  -0.000000
   86  C  6 YY   -0.009541  -0.004337  -0.008010  -0.015249  -0.000000
   87  C  6 ZZ    0.002247   0.001352  -0.002342   0.010567  -0.000000
   88  C  6 XY   -0.001970  -0.008697   0.004716   0.006925  -0.000000
   89  C  6 XZ    0.000000  -0.000000   0.000000   0.000000   0.014044
   90  C  6 YZ    0.000000  -0.000000   0.000000   0.000000   0.008108
   91  H  7  S    0.009340   0.013822   0.000000   0.023734  -0.000000
   92  H  7  S    1.326479  -1.423746   0.000000   1.388656  -0.000000
   93  H  8  S    0.004670  -0.006911  -0.011970  -0.023734  -0.000000
   94  H  8  S    0.663240   0.711873   1.233000  -1.388656  -0.000000
   95  H  9  S   -0.004670  -0.006911   0.011970   0.023734  -0.000000
   96  H  9  S   -0.663240   0.711873  -1.233000   1.388656  -0.000000
   97  H 10  S   -0.009340   0.013822   0.000000  -0.023734  -0.000000
   98  H 10  S   -1.326479  -1.423746   0.000000  -1.388656  -0.000000
   99  H 11  S   -0.004670  -0.006911  -0.011970   0.023734  -0.000000
  100  H 11  S   -0.663240   0.711873   1.233000   1.388656  -0.000000
  101  H 12  S    0.004670  -0.006911   0.011970  -0.023734  -0.000000
  102  H 12  S    0.663240   0.711873  -1.233000  -1.388656  -0.000000

                     31         32         33         34         35
                    0.4728     0.4728     0.4993     0.4993     0.6580
                     E2G        E2G        E1U        E1U        B1U 
    1  C  1  S   -0.072682   0.000000  -0.000000  -0.047403   0.000000
    2  C  1  S    0.050383   0.000000  -0.000000   0.018689   0.000000
    3  C  1  X   -0.000000  -0.016054   0.223715  -0.000000  -0.326842
    4  C  1  Y    0.190769   0.000000  -0.000000   0.049131   0.000000
    5  C  1  Z   -0.000000   0.000000  -0.000000  -0.000000   0.000000
    6  C  1  S    2.246804   0.000000  -0.000000   2.145920   0.000000
    7  C  1  X   -0.000000   0.967975   2.208956  -0.000000   0.504995
    8  C  1  Y    1.705313   0.000000  -0.000000   0.250176   0.000000
    9  C  1  Z   -0.000000   0.000000  -0.000000  -0.000000   0.000000
   10  C  1 XX    0.010994   0.000000  -0.000000  -0.028428   0.000000
   11  C  1 YY    0.003913   0.000000  -0.000000   0.035266   0.000000
   12  C  1 ZZ   -0.002576   0.000000  -0.000000  -0.000404   0.000000
   13  C  1 XY   -0.000000  -0.030586  -0.020017  -0.000000  -0.047212
   14  C  1 XZ   -0.000000   0.000000  -0.000000  -0.000000   0.000000
   15  C  1 YZ   -0.000000   0.000000  -0.000000  -0.000000   0.000000
   16  C  2  S    0.036341   0.062944   0.041052  -0.023701   0.000000
   17  C  2  S   -0.025192  -0.043633  -0.016185   0.009345   0.000000
   18  C  2  X    0.075654   0.147090   0.092777   0.075597   0.163421
   19  C  2  Y   -0.059733  -0.075654   0.075597   0.180069   0.283053
   20  C  2  Z   -0.000000   0.000000  -0.000000  -0.000000   0.000000
   21  C  2  S   -1.123402  -1.945790  -1.858421   1.072960   0.000000
   22  C  2  X    1.157568   1.036991   0.739871   0.848176  -0.252497
   23  C  2  Y    0.299653  -1.157568   0.848176   1.719261  -0.437338
   24  C  2  Z   -0.000000   0.000000  -0.000000  -0.000000   0.000000
   25  C  2 XX    0.017025  -0.016391  -0.009245   0.022673  -0.035409
   26  C  2 YY   -0.024478   0.003482   0.003323  -0.019254   0.035409
   27  C  2 ZZ    0.001288   0.002231   0.000350  -0.000202   0.000000
   28  C  2 XY    0.011474  -0.010713   0.032585  -0.007256  -0.023606
   29  C  2 XZ   -0.000000   0.000000  -0.000000  -0.000000   0.000000
   30  C  2 YZ   -0.000000   0.000000  -0.000000  -0.000000   0.000000
   31  C  3  S    0.036341  -0.062944   0.041052   0.023701   0.000000
   32  C  3  S   -0.025192   0.043633  -0.016185  -0.009345   0.000000
   33  C  3  X    0.075654  -0.147090   0.092777  -0.075597   0.163421
   34  C  3  Y    0.059733  -0.075654  -0.075597   0.180069  -0.283053
   35  C  3  Z   -0.000000   0.000000  -0.000000  -0.000000   0.000000
   36  C  3  S   -1.123402   1.945790  -1.858421  -1.072960   0.000000
   37  C  3  X    1.157568  -1.036991   0.739871  -0.848176  -0.252497
   38  C  3  Y   -0.299653  -1.157568  -0.848176   1.719261   0.437338
   39  C  3  Z   -0.000000   0.000000  -0.000000  -0.000000   0.000000
   40  C  3 XX    0.017025   0.016391  -0.009245  -0.022673  -0.035409
   41  C  3 YY   -0.024478  -0.003482   0.003323   0.019254   0.035409
   42  C  3 ZZ    0.001288  -0.002231   0.000350   0.000202   0.000000
   43  C  3 XY   -0.011474  -0.010713  -0.032585  -0.007256   0.023606
   44  C  3 XZ   -0.000000   0.000000  -0.000000  -0.000000   0.000000
   45  C  3 YZ   -0.000000   0.000000  -0.000000  -0.000000   0.000000
   46  C  4  S   -0.072682   0.000000  -0.000000   0.047403   0.000000
   47  C  4  S    0.050383   0.000000  -0.000000  -0.018689   0.000000
   48  C  4  X   -0.000000   0.016054   0.223715  -0.000000  -0.326842
   49  C  4  Y   -0.190769   0.000000  -0.000000   0.049131   0.000000
   50  C  4  Z   -0.000000   0.000000  -0.000000  -0.000000   0.000000
   51  C  4  S    2.246804   0.000000  -0.000000  -2.145920   0.000000
   52  C  4  X   -0.000000  -0.967975   2.208956  -0.000000   0.504995
   53  C  4  Y   -1.705313   0.000000  -0.000000   0.250176   0.000000
   54  C  4  Z   -0.000000   0.000000  -0.000000  -0.000000   0.000000
   55  C  4 XX    0.010994   0.000000  -0.000000   0.028428   0.000000
   56  C  4 YY    0.003913   0.000000  -0.000000  -0.035266   0.000000
   57  C  4 ZZ   -0.002576   0.000000  -0.000000   0.000404   0.000000
   58  C  4 XY   -0.000000  -0.030586   0.020017  -0.000000   0.047212
   59  C  4 XZ   -0.000000   0.000000  -0.000000  -0.000000   0.000000
   60  C  4 YZ   -0.000000   0.000000  -0.000000  -0.000000   0.000000
   61  C  5  S    0.036341   0.062944  -0.041052   0.023701   0.000000
   62  C  5  S   -0.025192  -0.043633   0.016185  -0.009345   0.000000
   63  C  5  X   -0.075654  -0.147090   0.092777   0.075597   0.163421
   64  C  5  Y    0.059733   0.075654   0.075597   0.180069   0.283053
   65  C  5  Z   -0.000000   0.000000  -0.000000  -0.000000   0.000000
   66  C  5  S   -1.123402  -1.945790   1.858421  -1.072960   0.000000
   67  C  5  X   -1.157568  -1.036991   0.739871   0.848176  -0.252497
   68  C  5  Y   -0.299653   1.157568   0.848176   1.719261  -0.437338
   69  C  5  Z   -0.000000   0.000000  -0.000000  -0.000000   0.000000
   70  C  5 XX    0.017025  -0.016391   0.009245  -0.022673   0.035409
   71  C  5 YY   -0.024478   0.003482  -0.003323   0.019254  -0.035409
   72  C  5 ZZ    0.001288   0.002231  -0.000350   0.000202   0.000000
   73  C  5 XY    0.011474  -0.010713  -0.032585   0.007256   0.023606
   74  C  5 XZ   -0.000000   0.000000  -0.000000  -0.000000   0.000000
   75  C  5 YZ   -0.000000   0.000000  -0.000000  -0.000000   0.000000
   76  C  6  S    0.036341  -0.062944  -0.041052  -0.023701   0.000000
   77  C  6  S   -0.025192   0.043633   0.016185   0.009345   0.000000
   78  C  6  X   -0.075654   0.147090   0.092777  -0.075597   0.163421
   79  C  6  Y   -0.059733   0.075654  -0.075597   0.180069  -0.283053
   80  C  6  Z   -0.000000   0.000000  -0.000000  -0.000000   0.000000
   81  C  6  S   -1.123402   1.945790   1.858421   1.072960   0.000000
   82  C  6  X   -1.157568   1.036991   0.739871  -0.848176  -0.252497
   83  C  6  Y    0.299653   1.157568  -0.848176   1.719261   0.437338
   84  C  6  Z   -0.000000   0.000000  -0.000000  -0.000000   0.000000
   85  C  6 XX    0.017025   0.016391   0.009245   0.022673   0.035409
   86  C  6 YY   -0.024478  -0.003482  -0.003323  -0.019254  -0.035409
   87  C  6 ZZ    0.001288  -0.002231  -0.000350  -0.000202   0.000000
   88  C  6 XY   -0.011474  -0.010713   0.032585   0.007256  -0.023606
   89  C  6 XZ   -0.000000   0.000000  -0.000000  -0.000000   0.000000
   90  C  6 YZ   -0.000000   0.000000  -0.000000  -0.000000   0.000000
   91  H  7  S    0.013983   0.000000  -0.000000   0.139470   0.000000
   92  H  7  S    0.987468   0.000000  -0.000000  -0.099763   0.000000
   93  H  8  S   -0.006992  -0.012110  -0.120784   0.069735   0.000000
   94  H  8  S   -0.493734  -0.855172   0.086398  -0.049882   0.000000
   95  H  9  S   -0.006992   0.012110  -0.120784  -0.069735   0.000000
   96  H  9  S   -0.493734   0.855172   0.086398   0.049882   0.000000
   97  H 10  S    0.013983   0.000000  -0.000000  -0.139470   0.000000
   98  H 10  S    0.987468   0.000000  -0.000000   0.099763   0.000000
   99  H 11  S   -0.006992  -0.012110   0.120784  -0.069735   0.000000
  100  H 11  S   -0.493734  -0.855172  -0.086398   0.049882   0.000000
  101  H 12  S   -0.006992   0.012110   0.120784   0.069735   0.000000
  102  H 12  S   -0.493734   0.855172  -0.086398  -0.049882   0.000000

                     36         37         38         39         40
                    0.7393     0.7551     0.7817     0.7856     0.7888
                     A1G        A2U        A2G        B2U        A1G 
    1  C  1  S    0.003340   0.000000   0.000000  -0.115067  -0.014292
    2  C  1  S    0.422730   0.000000   0.000000   0.064627  -0.345428
    3  C  1  X    0.000000   0.000000   0.213488  -0.000000  -0.000000
    4  C  1  Y    0.211581   0.000000   0.000000   0.103311   0.061276
    5  C  1  Z    0.000000   0.429282   0.000000  -0.000000  -0.000000
    6  C  1  S   -0.406292   0.000000   0.000000   4.517907   0.494177
    7  C  1  X    0.000000   0.000000   4.064567  -0.000000  -0.000000
    8  C  1  Y   -0.141912   0.000000   0.000000   3.369616  -0.201024
    9  C  1  Z    0.000000  -0.301473   0.000000  -0.000000  -0.000000
   10  C  1 XX    0.094937   0.000000   0.000000   0.009214  -0.010870
   11  C  1 YY   -0.011288   0.000000   0.000000  -0.002704  -0.104705
   12  C  1 ZZ    0.002390   0.000000   0.000000   0.023600   0.025980
   13  C  1 XY    0.000000   0.000000  -0.007438  -0.000000  -0.000000
   14  C  1 XZ    0.000000   0.000000   0.000000  -0.000000  -0.000000
   15  C  1 YZ    0.000000   0.021775   0.000000  -0.000000  -0.000000
   16  C  2  S    0.003340   0.000000   0.000000   0.115067  -0.014292
   17  C  2  S    0.422730   0.000000   0.000000  -0.064627  -0.345428
   18  C  2  X   -0.183235   0.000000   0.106744   0.089470  -0.053067
   19  C  2  Y    0.105791   0.000000   0.184886  -0.051655   0.030638
   20  C  2  Z    0.000000   0.429282   0.000000  -0.000000  -0.000000
   21  C  2  S   -0.406292   0.000000   0.000000  -4.517907   0.494177
   22  C  2  X    0.122899   0.000000   2.032284   2.918173   0.174092
   23  C  2  Y   -0.070956   0.000000   3.520018  -1.684808  -0.100512
   24  C  2  Z    0.000000  -0.301473   0.000000  -0.000000  -0.000000
   25  C  2 XX    0.015268   0.000000   0.005579  -0.000275  -0.081246
   26  C  2 YY    0.068380   0.000000  -0.005579  -0.006234  -0.034329
   27  C  2 ZZ    0.002390   0.000000   0.000000  -0.023600   0.025980
   28  C  2 XY    0.053112   0.000000   0.003719  -0.005959   0.046917
   29  C  2 XZ    0.000000  -0.018858   0.000000  -0.000000  -0.000000
   30  C  2 YZ    0.000000   0.010887   0.000000  -0.000000  -0.000000
   31  C  3  S    0.003340   0.000000   0.000000  -0.115067  -0.014292
   32  C  3  S    0.422730   0.000000   0.000000   0.064627  -0.345428
   33  C  3  X   -0.183235   0.000000  -0.106744  -0.089470  -0.053067
[...]
   14  C  1 XZ    0.000000
   15  C  1 YZ    0.000000
   16  C  2  S    0.036159
   17  C  2  S   -0.024642
   18  C  2  X    0.074481
   19  C  2  Y   -0.060438
   20  C  2  Z    0.000000
   21  C  2  S   -1.129104
   22  C  2  X    1.175049
   23  C  2  Y    0.296837
   24  C  2  Z    0.000000
   25  C  2 XX    0.016942
   26  C  2 YY   -0.024559
   27  C  2 ZZ    0.001272
   28  C  2 XY    0.011333
   29  C  2 XZ    0.000000
   30  C  2 YZ    0.000000
   31  C  3  S    0.036159
   32  C  3  S   -0.024642
   33  C  3  X    0.074481
   34  C  3  Y    0.060438
   35  C  3  Z    0.000000
   36  C  3  S   -1.129104
   37  C  3  X    1.175049
   38  C  3  Y   -0.296837
   39  C  3  Z    0.000000
   40  C  3 XX    0.016942
   41  C  3 YY   -0.024559
   42  C  3 ZZ    0.001272
   43  C  3 XY   -0.011333
   44  C  3 XZ    0.000000
   45  C  3 YZ    0.000000
   46  C  4  S   -0.072319
   47  C  4  S    0.049284
   48  C  4  X    0.000000
   49  C  4  Y   -0.189444
   50  C  4  Z    0.000000
   51  C  4  S    2.258208
   52  C  4  X    0.000000
   53  C  4  Y   -1.738408
   54  C  4  Z    0.000000
   55  C  4 XX    0.011367
   56  C  4 YY    0.003867
   57  C  4 ZZ   -0.002544
   58  C  4 XY    0.000000
   59  C  4 XZ    0.000000
   60  C  4 YZ    0.000000
   61  C  5  S    0.036159
   62  C  5  S   -0.024642
   63  C  5  X   -0.074481
   64  C  5  Y    0.060438
   65  C  5  Z    0.000000
   66  C  5  S   -1.129104
   67  C  5  X   -1.175049
   68  C  5  Y   -0.296837
   69  C  5  Z    0.000000
   70  C  5 XX    0.016942
   71  C  5 YY   -0.024559
   72  C  5 ZZ    0.001272
   73  C  5 XY    0.011333
   74  C  5 XZ    0.000000
   75  C  5 YZ    0.000000
   76  C  6  S    0.036159
   77  C  6  S   -0.024642
   78  C  6  X   -0.074481
   79  C  6  Y   -0.060438
   80  C  6  Z    0.000000
   81  C  6  S   -1.129104
   82  C  6  X   -1.175049
   83  C  6  Y    0.296837
   84  C  6  Z    0.000000
   85  C  6 XX    0.016942
   86  C  6 YY   -0.024559
   87  C  6 ZZ    0.001272
   88  C  6 XY   -0.011333
   89  C  6 XZ    0.000000
   90  C  6 YZ    0.000000
   91  H  7  S    0.013167
   92  H  7  S    1.023876
   93  H  8  S   -0.006584
   94  H  8  S   -0.511938
   95  H  9  S   -0.006584
   96  H  9  S   -0.511938
   97  H 10  S    0.013167
   98  H 10  S    1.023876
   99  H 11  S   -0.006584
  100  H 11  S   -0.511938
  101  H 12  S   -0.006584
  102  H 12  S   -0.511938

     ----------------------------------------------------------------
     PROPERTY VALUES FOR THE RHF   SELF-CONSISTENT FIELD WAVEFUNCTION
     ----------------------------------------------------------------

          -----------------
          ENERGY COMPONENTS
          -----------------

         WAVEFUNCTION NORMALIZATION =       1.0000000000

                ONE ELECTRON ENERGY =    -716.1341867540
                TWO ELECTRON ENERGY =     280.6195473961
           NUCLEAR REPULSION ENERGY =     204.8115023393
                                      ------------------
                       TOTAL ENERGY =    -230.7031370187

 ELECTRON-ELECTRON POTENTIAL ENERGY =     280.6195473961
  NUCLEUS-ELECTRON POTENTIAL ENERGY =    -946.6435381877
   NUCLEUS-NUCLEUS POTENTIAL ENERGY =     204.8115023393
                                      ------------------
             TOTAL POTENTIAL ENERGY =    -461.2124884524
               TOTAL KINETIC ENERGY =     230.5093514337
                 VIRIAL RATIO (V/T) =       2.0008406843

  ...... PI ENERGY ANALYSIS ......

 ENERGY ANALYSIS:
            FOCK ENERGY=   -154.8951331941
          BARE H ENERGY=   -716.1341867540
     ELECTRONIC ENERGY =   -435.5146599741
         KINETIC ENERGY=    230.5093514337
          N-N REPULSION=    204.8115023393
           TOTAL ENERGY=   -230.7031576348
        SIGMA PART(1+2)=   -396.7916051037
               (K,V1,2)=    224.5953284140   -865.6018738094    244.2149402917
           PI PART(1+2)=    -38.7230548704
               (K,V1,2)=      5.9140230197    -81.0416643783     36.4045864883
  SIGMA SKELETON, ERROR=   -191.9801027645     -0.0000000000
             MIXED PART= 0.00000E+00 0.00000E+00 0.00000E+00 0.00000E+00
 ...... END OF PI ENERGY ANALYSIS ......

          ---------------------------------------
          MULLIKEN AND LOWDIN POPULATION ANALYSES
          ---------------------------------------

     ATOMIC MULLIKEN POPULATION IN EACH MOLECULAR ORBITAL

                      1          2          3          4          5

                  2.000000   2.000000   2.000000   2.000000   2.000000

    1             0.333246   0.000308   0.666241   0.666352   0.000235
    2             0.333246   0.499758   0.166791   0.166764   0.499823
    3             0.333246   0.499758   0.166791   0.166764   0.499823
    4             0.333246   0.000308   0.666241   0.666352   0.000235
    5             0.333246   0.499758   0.166791   0.166764   0.499823
    6             0.333246   0.499758   0.166791   0.166764   0.499823
    7             0.000087   0.000000   0.000118   0.000080   0.000000
    8             0.000087   0.000088   0.000029   0.000020   0.000060
    9             0.000087   0.000088   0.000029   0.000020   0.000060
   10             0.000087   0.000000   0.000118   0.000080   0.000000
   11             0.000087   0.000088   0.000029   0.000020   0.000060
   12             0.000087   0.000088   0.000029   0.000020   0.000060

                      6          7          8          9         10

                  2.000000   2.000000   2.000000   2.000000   2.000000

    1             0.333351   0.322708   0.086967   0.529705   0.327612
    2             0.333351   0.322708   0.419020   0.197651   0.262951
    3             0.333351   0.322708   0.419020   0.197651   0.262951
    4             0.333351   0.322708   0.086967   0.529705   0.327612
    5             0.333351   0.322708   0.419020   0.197651   0.262951
    6             0.333351   0.322708   0.419020   0.197651   0.262951
    7            -0.000018   0.010625   0.000000   0.049995   0.097658
    8            -0.000018   0.010625   0.037496   0.012499   0.024414
    9            -0.000018   0.010625   0.037496   0.012499   0.024414
   10            -0.000018   0.010625   0.000000   0.049995   0.097658
   11            -0.000018   0.010625   0.037496   0.012499   0.024414
   12            -0.000018   0.010625   0.037496   0.012499   0.024414

                     11         12         13         14         15

                  2.000000   2.000000   2.000000   2.000000   2.000000

    1             0.241397   0.230223   0.202486   0.333333   0.026803
    2             0.306058   0.230223   0.202486   0.333333   0.325045
    3             0.306058   0.230223   0.202486   0.333333   0.325045
    4             0.241397   0.230223   0.202486   0.333333   0.026803
    5             0.306058   0.230223   0.202486   0.333333   0.325045
    6             0.306058   0.230223   0.202486   0.333333   0.325045
    7             0.000000   0.103111   0.130847   0.000000   0.000000
    8             0.073243   0.103111   0.130847   0.000000   0.161554
    9             0.073243   0.103111   0.130847   0.000000   0.161554
   10             0.000000   0.103111   0.130847   0.000000   0.000000
   11             0.073243   0.103111   0.130847   0.000000   0.161554
   12             0.073243   0.103111   0.130847   0.000000   0.161554

                     16         17         18         19         20

                  2.000000   2.000000   2.000000   2.000000   2.000000

    1             0.424459   0.333333   0.229148   0.244879   0.659264
    2             0.126217   0.333333   0.240946   0.233081   0.170368
    3             0.126217   0.333333   0.240946   0.233081   0.170368
    4             0.424459   0.333333   0.229148   0.244879   0.659264
    5             0.126217   0.333333   0.240946   0.233081   0.170368
    6             0.126217   0.333333   0.240946   0.233081   0.170368
    7             0.215405   0.000000   0.192640   0.000000   0.000000
    8             0.053851   0.000000   0.048160   0.144480   0.000000
    9             0.053851   0.000000   0.048160   0.144480   0.000000
   10             0.215405   0.000000   0.192640   0.000000   0.000000
   11             0.053851   0.000000   0.048160   0.144480   0.000000
   12             0.053851   0.000000   0.048160   0.144480   0.000000

                     21

                  2.000000

    1             0.007402
    2             0.496299
    3             0.496299
    4             0.007402
    5             0.496299
    6             0.496299
    7             0.000000
    8             0.000000
    9             0.000000
   10             0.000000
   11             0.000000
   12             0.000000

               ----- POPULATIONS IN EACH AO -----
                             MULLIKEN      LOWDIN
              1  C  1  S      1.99663     1.97987
              2  C  1  S      0.67071     0.35186
              3  C  1  X      0.75303     0.66665
              4  C  1  Y      0.73280     0.65176
              5  C  1  Z      0.51875     0.47794
              6  C  1  S      0.48365     0.29549
              7  C  1  X      0.16708     0.32332
              8  C  1  Y      0.34659     0.40496
              9  C  1  Z      0.47096     0.50324
             10  C  1 XX      0.02065     0.18187
             11  C  1 YY      0.03312     0.18156
             12  C  1 ZZ     -0.01863     0.10015
             13  C  1 XY      0.01382     0.02364
             14  C  1 XZ      0.00740     0.01492
             15  C  1 YZ      0.00288     0.00390
             16  C  2  S      1.99663     1.97990
             17  C  2  S      0.67071     0.35228
             18  C  2  X      0.73786     0.65431
             19  C  2  Y      0.74797     0.66506
             20  C  2  Z      0.51875     0.47794
             21  C  2  S      0.48365     0.29558
             22  C  2  X      0.30171     0.38430
             23  C  2  Y      0.21196     0.34332
             24  C  2  Z      0.47096     0.50324
             25  C  2 XX      0.02833     0.17766
             26  C  2 YY      0.02210     0.17886
             27  C  2 ZZ     -0.01863     0.10021
             28  C  2 XY      0.01716     0.03327
             29  C  2 XZ      0.00401     0.00665
             30  C  2 YZ      0.00627     0.01216
             31  C  3  S      1.99663     1.97990
             32  C  3  S      0.67071     0.35228
             33  C  3  X      0.73786     0.65431
             34  C  3  Y      0.74797     0.66506
             35  C  3  Z      0.51875     0.47794
             36  C  3  S      0.48365     0.29558
             37  C  3  X      0.30171     0.38430
             38  C  3  Y      0.21196     0.34332
             39  C  3  Z      0.47096     0.50324
             40  C  3 XX      0.02833     0.17766
             41  C  3 YY      0.02210     0.17886
             42  C  3 ZZ     -0.01863     0.10021
             43  C  3 XY      0.01716     0.03327
             44  C  3 XZ      0.00401     0.00665
             45  C  3 YZ      0.00627     0.01216
             46  C  4  S      1.99663     1.97987
             47  C  4  S      0.67071     0.35186
             48  C  4  X      0.75303     0.66665
             49  C  4  Y      0.73280     0.65176
             50  C  4  Z      0.51875     0.47794
             51  C  4  S      0.48365     0.29549
             52  C  4  X      0.16708     0.32332
             53  C  4  Y      0.34659     0.40496
             54  C  4  Z      0.47096     0.50324
             55  C  4 XX      0.02065     0.18187
             56  C  4 YY      0.03312     0.18156
             57  C  4 ZZ     -0.01863     0.10015
             58  C  4 XY      0.01382     0.02364
             59  C  4 XZ      0.00740     0.01492
             60  C  4 YZ      0.00288     0.00390
             61  C  5  S      1.99663     1.97990
             62  C  5  S      0.67071     0.35228
             63  C  5  X      0.73786     0.65431
             64  C  5  Y      0.74797     0.66506
             65  C  5  Z      0.51875     0.47794
             66  C  5  S      0.48365     0.29558
             67  C  5  X      0.30171     0.38430
             68  C  5  Y      0.21196     0.34332
             69  C  5  Z      0.47096     0.50324
             70  C  5 XX      0.02833     0.17766
             71  C  5 YY      0.02210     0.17886
             72  C  5 ZZ     -0.01863     0.10021
             73  C  5 XY      0.01716     0.03327
             74  C  5 XZ      0.00401     0.00665
             75  C  5 YZ      0.00627     0.01216
             76  C  6  S      1.99663     1.97990
             77  C  6  S      0.67071     0.35228
             78  C  6  X      0.73786     0.65431
             79  C  6  Y      0.74797     0.66506
             80  C  6  Z      0.51875     0.47794
             81  C  6  S      0.48365     0.29558
             82  C  6  X      0.30171     0.38430
             83  C  6  Y      0.21196     0.34332
             84  C  6  Z      0.47096     0.50324
             85  C  6 XX      0.02833     0.17766
             86  C  6 YY      0.02210     0.17886
             87  C  6 ZZ     -0.01863     0.10021
             88  C  6 XY      0.01716     0.03327
             89  C  6 XZ      0.00401     0.00665
             90  C  6 YZ      0.00627     0.01216
             91  H  7  S      0.52978     0.49464
             92  H  7  S      0.27077     0.34354
             93  H  8  S      0.52978     0.49227
             94  H  8  S      0.27077     0.34332
             95  H  9  S      0.52978     0.49227
             96  H  9  S      0.27077     0.34332
             97  H 10  S      0.52978     0.49464
             98  H 10  S      0.27077     0.34354
             99  H 11  S      0.52978     0.49227
            100  H 11  S      0.27077     0.34332
            101  H 12  S      0.52978     0.49227
            102  H 12  S      0.27077     0.34332

          ----- MULLIKEN ATOMIC OVERLAP POPULATIONS -----
          (OFF-DIAGONAL ELEMENTS NEED TO BE MULTIPLIED BY 2)

             1           2           3           4           5

    1    4.8837364
    2    0.5568841   4.8837364
    3   -0.0454586   0.5568841   4.8837364
    4   -0.0338976  -0.0454586   0.5568841   4.8837364
    5   -0.0454586  -0.0338976  -0.0454586   0.5568841   4.8837364
    6    0.5568841  -0.0454586  -0.0338976  -0.0454586   0.5568841
    7    0.3839217  -0.0312900   0.0026158   0.0001896   0.0026158
    8   -0.0312900   0.3839217  -0.0312900   0.0026158   0.0001896
    9    0.0026158  -0.0312900   0.3839217  -0.0312900   0.0026158
   10    0.0001896   0.0026158  -0.0312900   0.3839217  -0.0312900
   11    0.0026158   0.0001896   0.0026158  -0.0312900   0.3839217
   12   -0.0312900   0.0026158   0.0001896   0.0026158  -0.0312900

             6           7           8           9          10

    6    4.8837364
    7   -0.0312900   0.4775736
    8    0.0026158  -0.0017844   0.4775736
    9    0.0001896  -0.0001154  -0.0017844   0.4775736
   10    0.0026158   0.0000106  -0.0001154  -0.0017844   0.4775736
   11   -0.0312900  -0.0001154   0.0000106  -0.0001154  -0.0017844
   12    0.3839217  -0.0017844  -0.0001154   0.0000106  -0.0001154

            11          12

   11    0.4775736
   12   -0.0017844   0.4775736

          TOTAL MULLIKEN AND LOWDIN ATOMIC POPULATIONS
       ATOM         MULL.POP.    CHARGE          LOW.POP.     CHARGE
    1 C             6.199453   -0.199453         6.161123   -0.161123
    2 C             6.199453   -0.199453         6.164752   -0.164752
    3 C             6.199453   -0.199453         6.164752   -0.164752
    4 C             6.199453   -0.199453         6.161123   -0.161123
    5 C             6.199453   -0.199453         6.164752   -0.164752
    6 C             6.199453   -0.199453         6.164752   -0.164752
    7 H             0.800547    0.199453         0.838180    0.161820
    8 H             0.800547    0.199453         0.835596    0.164404
    9 H             0.800547    0.199453         0.835596    0.164404
   10 H             0.800547    0.199453         0.838180    0.161820
   11 H             0.800547    0.199453         0.835596    0.164404
   12 H             0.800547    0.199453         0.835596    0.164404

          -------------------------------
          BOND ORDER AND VALENCE ANALYSIS     BOND ORDER THRESHOLD=0.050
          -------------------------------

                   BOND                       BOND                       BOND
  ATOM PAIR DIST  ORDER      ATOM PAIR DIST  ORDER      ATOM PAIR DIST  ORDER
    1   2  1.386  1.454        1   4  2.772  0.094        1   6  1.386  1.454
    1   7  1.076  0.942        2   3  1.386  1.454        2   5  2.772  0.094
    2   8  1.076  0.942        3   4  1.386  1.454        3   6  2.772  0.094
    3   9  1.076  0.942        4   5  1.386  1.454        4  10  1.076  0.942
    5   6  1.386  1.454        5  11  1.076  0.942        6  12  1.076  0.942

                       TOTAL       BONDED        FREE
      ATOM            VALENCE     VALENCE     VALENCE
    1 C                 3.908       3.908       0.000
    2 C                 3.908       3.908       0.000
    3 C                 3.908       3.908       0.000
    4 C                 3.908       3.908       0.000
    5 C                 3.908       3.908       0.000
    6 C                 3.908       3.908      -0.000
    7 H                 0.927       0.927       0.000
    8 H                 0.927       0.927       0.000
    9 H                 0.927       0.927       0.000
   10 H                 0.927       0.927       0.000
   11 H                 0.927       0.927       0.000
   12 H                 0.927       0.927       0.000

          ---------------------
          ELECTROSTATIC MOMENTS
          ---------------------

 POINT   1           X           Y           Z (BOHR)    CHARGE
                 0.000000    0.000000    0.000000        0.00 (A.U.)
         DX          DY          DZ         /D/  (DEBYE)
     0.000000   -0.000000   -0.000000    0.000000
 ...... END OF PROPERTY EVALUATION ......
 STEP CPU TIME =     0.04 TOTAL CPU TIME =        4.1 (    0.1 MIN)
 TOTAL WALL CLOCK TIME=        4.2 SECONDS, CPU UTILIZATION IS  98.57%
  $VIB   
          IVIB=   0 IATOM=   0 ICOORD=   0 E=     -230.7031370187
  0.000000000E+00-1.183252679E-06 0.000000000E+00 1.024726880E-06-5.916263388E-07
  0.000000000E+00 1.024726879E-06 5.916263407E-07 0.000000000E+00 0.000000000E+00
  1.183252679E-06 0.000000000E+00-1.024726880E-06 5.916263388E-07 0.000000000E+00
 -1.024726879E-06-5.916263407E-07 0.000000000E+00 0.000000000E+00 1.875341454E-06
  0.000000000E+00-1.624093340E-06 9.376707267E-07 0.000000000E+00-1.624093340E-06
 -9.376707271E-07 0.000000000E+00 0.000000000E+00-1.875341454E-06 0.000000000E+00
  1.624093340E-06-9.376707267E-07 0.000000000E+00 1.624093340E-06 9.376707271E-07
  0.000000000E+00
  9.865942288E-14-2.202536176E-14-2.562387660E-17
 ......END OF GEOMETRY SEARCH......
 STEP CPU TIME =     0.00 TOTAL CPU TIME =        4.1 (    0.1 MIN)
 TOTAL WALL CLOCK TIME=        4.2 SECONDS, CPU UTILIZATION IS  98.57%
      988485  WORDS OF DYNAMIC MEMORY USED
 EXECUTION OF GAMESS TERMINATED NORMALLY Mon Oct  3 12:29:59 2011
 DDI: 263224 bytes (0.3 MB / 0 MWords) used by master data server.

 ----------------------------------------
 CPU timing information for all processes
 ========================================
 0: 3.972 + 0.184 = 4.156
 ----------------------------------------
 ddikick.x: exited gracefully.
unset echo
----- accounting info -----
Files used on the master node idhi were:
-rw-r--r-- 1 koushik koushik     794 2011-10-03 12:29 /home/koushik/Desktop/gamess/benzeneopt.F05
-rw-r--r-- 1 koushik koushik 7740516 2011-10-03 12:29 /home/koushik/Desktop/gamess/benzeneopt.F08
-rw-r--r-- 1 koushik koushik 1963200 2011-10-03 12:29 /home/koushik/Desktop/gamess/benzeneopt.F10
Mon Oct  3 12:30:02 IST 2011
0.0u 0.0s 0:07.30 1.9% 0+0k 0+24io 0pf+0w
