          ******************************************************
          *         GAMESS VERSION =  1 OCT 2010 (R1)          *
          *             FROM IOWA STATE UNIVERSITY             *
          * M.W.SCHMIDT, K.K.BALDRIDGE, J.A.BOATZ, S.T.ELBERT, *
          *   M.S.GORDON, J.H.JENSEN, S.KOSEKI, N.MATSUNAGA,   *
          *          K.A.NGUYEN, S.J.SU, T.L.WINDUS,           *
          *       TOGETHER WITH M.DUPUIS, J.A.MONTGOMERY       *
          *         J.COMPUT.CHEM.  14, 1347-1363(1993)        *
          **************** 32 BIT LINUX VERSION ****************

  SINCE 1993, STUDENTS AND POSTDOCS WORKING AT IOWA STATE UNIVERSITY
  AND ALSO IN THEIR VARIOUS JOBS AFTER LEAVING ISU HAVE MADE IMPORTANT
  CONTRIBUTIONS TO THE CODE:
     IVANA ADAMOVIC, CHRISTINE AIKENS, YURI ALEXEEV, POOJA ARORA,
     ANDREY ASADCHEV, ROB BELL, PRADIPTA BANDYOPADHYAY, JONATHAN BENTZ,
     BRETT BODE, GALINA CHABAN, WEI CHEN, CHEOL HO CHOI, PAUL DAY, TIM DUDLEY,
     DMITRI FEDOROV, GRAHAM FLETCHER, MARK FREITAG, KURT GLAESEMANN, DAN KEMP,
     GRANT MERRILL, NORIYUKI MINEZAWA, JONATHAN MULLIN, TAKESHI NAGATA,
     SEAN NEDD, HEATHER NETZLOFF, BOSILJKA NJEGIC, RYAN OLSON, MIKE PAK,
     JIM SHOEMAKER, LYUDMILA SLIPCHENKO, SAROM SOK, JIE SONG,
     TETSUYA TAKETSUGU, SIMON WEBB, SOOHAENG YOO, FEDERICO ZAHARIEV

  ADDITIONAL CODE HAS BEEN PROVIDED BY COLLABORATORS IN OTHER GROUPS:
     IOWA STATE UNIVERSITY:
          JOE IVANIC, LAIMUTIS BYTAUTAS, KLAUS RUEDENBERG
     UNIVERSITY OF TOKYO: KIMIHIKO HIRAO, TAKAHITO NAKAJIMA,
          TAKAO TSUNEDA, MUNEAKI KAMIYA, SUSUMU YANAGISAWA,
          KIYOSHI YAGI, MAHITO CHIBA, SEIKEN TOKURA, NAOAKI KAWAKAMI
     UNIVERSITY OF AARHUS: FRANK JENSEN
     UNIVERSITY OF IOWA: VISVALDAS KAIRYS, HUI LI
     NATIONAL INST. OF STANDARDS AND TECHNOLOGY: WALT STEVENS, DAVID GARMER
     UNIVERSITY OF PISA: BENEDETTA MENNUCCI, JACOPO TOMASI
     UNIVERSITY OF MEMPHIS: HENRY KURTZ, PRAKASHAN KORAMBATH
     UNIVERSITY OF ALBERTA: TOBY ZENG, MARIUSZ KLOBUKOWSKI
     UNIVERSITY OF NEW ENGLAND: MARK SPACKMAN
     MIE UNIVERSITY: HIROAKI UMEDA
     MICHIGAN STATE UNIVERSITY:
          KAROL KOWALSKI, MARTA WLOCH, JEFFREY GOUR, JESSE LUTZ, PIOTR PIECUCH
     UNIVERSITY OF SILESIA: MONIKA MUSIAL, STANISLAW KUCHARSKI
     FACULTES UNIVERSITAIRES NOTRE-DAME DE LA PAIX:
          OLIVIER QUINET, BENOIT CHAMPAGNE
     UNIVERSITY OF CALIFORNIA - SANTA BARBARA: BERNARD KIRTMAN
     INSTITUTE FOR MOLECULAR SCIENCE:
          KAZUYA ISHIMURA, MICHIO KATOUDA, AND SHIGERU NAGASE
     UNIVERSITY OF NOTRE DAME: DAN CHIPMAN
     KYUSHU UNIVERSITY:
          HARUYUKI NAKANO,
          FENG LONG GU, JACEK KORCHOWIEC, MARCIN MAKOWSKI, AND YURIKO AOKI,
          HIROTOSHI MORI AND EISAKU MIYOSHI
     PENNSYLVANIA STATE UNIVERSITY:
          TZVETELIN IORDANOV, CHET SWALINA, JONATHAN SKONE,
          SHARON HAMMES-SCHIFFER
     WASEDA UNIVERSITY:
          MASATO KOBAYASHI, TOMOKO AKAMA, HIROMI NAKAI
     UNIVERSITY OF NEBRASKA:
          PEIFENG SU, DEJUN SI, YALI WANG, HUI LI
     UNIVERSITY OF ZURICH:
          ROBERTO PEVERATI, KIM BALDRIDGE
     N. COPERNICUS UNIVERSITY AND JACKSON STATE UNIVERSITY:
          MARIA BARYSZ

 EXECUTION OF GAMESS BEGUN Mon Oct  3 12:52:01 2011

            ECHO OF THE FIRST FEW INPUT CARDS -
 INPUT CARD> $CONTRL RUNTYP=HESSIAN COORD=ZMT UNITS=ANGS $END                               
 INPUT CARD> $BASIS  GBASIS=N31 NGAUSS=6 NDFUNC=1 $END                                      
 INPUT CARD> $DATA                                                                          
 INPUT CARD>6-31g(d)/ Benzene normal modes                                                  
 INPUT CARD>Dnh 6                                                                           
 INPUT CARD>                                                                                
 INPUT CARD>C                                                                               
 INPUT CARD>C  1   1.3861734                                                                
 INPUT CARD>C  2   1.3861734  1   120.0000000                                               
 INPUT CARD>C  3   1.3861734  2   120.0000000  1     0.0000000                              
 INPUT CARD>C  4   1.3861734  3   120.0000000  2     0.0000000                              
 INPUT CARD>C  1   1.3861734  2   120.0000000  3     0.0000000                              
 INPUT CARD>H  1   1.0756030  6   120.0000000  5   180.0000000                              
 INPUT CARD>H  2   1.0756030  1   120.0000000  6   180.0000000                              
 INPUT CARD>H  3   1.0756030  2   120.0000000  1   180.0000000                              
 INPUT CARD>H  4   1.0756030  3   120.0000000  2   180.0000000                              
 INPUT CARD>H  5   1.0756030  4   120.0000000  3   180.0000000                              
 INPUT CARD>H  6   1.0756030  1   120.0000000  2   180.0000000                              
 INPUT CARD> $END                                                                           
    1000000 WORDS OF MEMORY AVAILABLE

     BASIS OPTIONS
     -------------
     GBASIS=N31          IGAUSS=       6      POLAR=POPN31  
     NDFUNC=       1     NFFUNC=       0     DIFFSP=       F
     NPFUNC=       0      DIFFS=       F     BASNAM=        


     RUN TITLE
     ---------
 6-31g(d)/ Benzene normal modes                                                  

 THE POINT GROUP OF THE MOLECULE IS DNH     
 THE ORDER OF THE PRINCIPAL AXIS IS     6

 YOUR FULLY SUBSTITUTED Z-MATRIX IS
 C   
 C      1   1.3861734
 C      2   1.3861734  1  120.0000
 C      3   1.3861734  2  120.0000  1    0.0000  0
 C      4   1.3861734  3  120.0000  2    0.0000  0
 C      1   1.3861734  2  120.0000  3    0.0000  0
 H      1   1.0756030  6  120.0000  5  180.0000  0
 H      2   1.0756030  1  120.0000  6  180.0000  0
 H      3   1.0756030  2  120.0000  1  180.0000  0
 H      4   1.0756030  3  120.0000  2  180.0000  0
 H      5   1.0756030  4  120.0000  3  180.0000  0
 H      6   1.0756030  1  120.0000  2  180.0000  0

 THE MOMENTS OF INERTIA ARE (AMU-ANGSTROM**2)
 IXX=    87.496   IYY=   174.993   IZZ=    87.496

 ATOM      ATOMIC                      COORDINATES (BOHR)
           CHARGE         X                   Y                   Z
 C           6.0     0.0000000000       -2.6194878975        0.0000000000
 C           6.0     2.2685430641       -1.3097439487        0.0000000000
 C           6.0     2.2685430641        1.3097439487        0.0000000000
 C           6.0    -0.0000000000        2.6194878975        0.0000000000
 C           6.0    -2.2685430641        1.3097439487        0.0000000000
 C           6.0    -2.2685430641       -1.3097439487        0.0000000000
 H           1.0    -0.0000000000       -4.6520828390        0.0000000000
 H           1.0     4.0288219191       -2.3260414195        0.0000000000
 H           1.0     4.0288219191        2.3260414195        0.0000000000
 H           1.0     0.0000000000        4.6520828390        0.0000000000
 H           1.0    -4.0288219191        2.3260414195        0.0000000000
 H           1.0    -4.0288219191       -2.3260414195        0.0000000000

          INTERNUCLEAR DISTANCES (ANGS.)
          ------------------------------

                1 C          2 C          3 C          4 C          5 C     

   1 C       0.0000000    1.3861734 *  2.4009228 *  2.7723468 *  2.4009228 *
   2 C       1.3861734 *  0.0000000    1.3861734 *  2.4009228 *  2.7723468 *
   3 C       2.4009228 *  1.3861734 *  0.0000000    1.3861734 *  2.4009228 *
   4 C       2.7723468 *  2.4009228 *  1.3861734 *  0.0000000    1.3861734 *
   5 C       2.4009228 *  2.7723468 *  2.4009228 *  1.3861734 *  0.0000000  
   6 C       1.3861734 *  2.4009228 *  2.7723468 *  2.4009228 *  1.3861734 *
   7 H       1.0756030 *  2.1376087 *  3.3755398    3.8479498    3.3755398  
   8 H       2.1376087 *  1.0756030 *  2.1376087 *  3.3755398    3.8479498  
   9 H       3.3755398    2.1376087 *  1.0756030 *  2.1376087 *  3.3755398  
  10 H       3.8479498    3.3755398    2.1376087 *  1.0756030 *  2.1376087 *
  11 H       3.3755398    3.8479498    3.3755398    2.1376087 *  1.0756030 *
  12 H       2.1376087 *  3.3755398    3.8479498    3.3755398    2.1376087 *

                6 C          7 H          8 H          9 H         10 H     

   1 C       1.3861734 *  1.0756030 *  2.1376087 *  3.3755398    3.8479498  
   2 C       2.4009228 *  2.1376087 *  1.0756030 *  2.1376087 *  3.3755398  
   3 C       2.7723468 *  3.3755398    2.1376087 *  1.0756030 *  2.1376087 *
   4 C       2.4009228 *  3.8479498    3.3755398    2.1376087 *  1.0756030 *
   5 C       1.3861734 *  3.3755398    3.8479498    3.3755398    2.1376087 *
   6 C       0.0000000    2.1376087 *  3.3755398    3.8479498    3.3755398  
   7 H       2.1376087 *  0.0000000    2.4617764 *  4.2639218    4.9235528  
   8 H       3.3755398    2.4617764 *  0.0000000    2.4617764 *  4.2639218  
   9 H       3.8479498    4.2639218    2.4617764 *  0.0000000    2.4617764 *
  10 H       3.3755398    4.9235528    4.2639218    2.4617764 *  0.0000000  
  11 H       2.1376087 *  4.2639218    4.9235528    4.2639218    2.4617764 *
  12 H       1.0756030 *  2.4617764 *  4.2639218    4.9235528    4.2639218  

               11 H         12 H     

   1 C       3.3755398    2.1376087 *
   2 C       3.8479498    3.3755398  
   3 C       3.3755398    3.8479498  
   4 C       2.1376087 *  3.3755398  
   5 C       1.0756030 *  2.1376087 *
   6 C       2.1376087 *  1.0756030 *
   7 H       4.2639218    2.4617764 *
   8 H       4.9235528    4.2639218  
   9 H       4.2639218    4.9235528  
  10 H       2.4617764 *  4.2639218  
  11 H       0.0000000    2.4617764 *
  12 H       2.4617764 *  0.0000000  

  * ... LESS THAN  3.000


     ATOMIC BASIS SET
     ----------------
 THE CONTRACTED PRIMITIVE FUNCTIONS HAVE BEEN UNNORMALIZED
 THE CONTRACTED BASIS FUNCTIONS ARE NOW NORMALIZED TO UNITY

  SHELL TYPE  PRIMITIVE        EXPONENT          CONTRACTION COEFFICIENT(S)

 C         

     21   S       1          3047.5248800    0.001834737132
     21   S       2           457.3695180    0.014037322813
     21   S       3           103.9486850    0.068842622264
     21   S       4            29.2101553    0.232184443216
     21   S       5             9.2866630    0.467941348435
     21   S       6             3.1639270    0.362311985337

     22   L       7             7.8682723   -0.119332419775    0.068999066591
     22   L       8             1.8812885   -0.160854151696    0.316423960957
     22   L       9             0.5442493    1.143456437840    0.744308290898

     23   L      10             0.1687145    1.000000000000    1.000000000000

     24   D      11             0.8000000    1.000000000000

 H         

     35   S      12            18.7311370    0.033494604338
     35   S      13             2.8253944    0.234726953484
     35   S      14             0.6401217    0.813757326146

     36   S      15             0.1612778    1.000000000000

 TOTAL NUMBER OF BASIS SET SHELLS             =   36
 NUMBER OF CARTESIAN GAUSSIAN BASIS FUNCTIONS =  102
 NUMBER OF ELECTRONS                          =   42
 CHARGE OF MOLECULE                           =    0
 SPIN MULTIPLICITY                            =    1
 NUMBER OF OCCUPIED ORBITALS (ALPHA)          =   21
 NUMBER OF OCCUPIED ORBITALS (BETA )          =   21
 TOTAL NUMBER OF ATOMS                        =   12
 THE NUCLEAR REPULSION ENERGY IS      204.8115039161

     $CONTRL OPTIONS
     ---------------
 SCFTYP=RHF          RUNTYP=HESSIAN      EXETYP=RUN     
 MPLEVL=       0     CITYP =NONE         CCTYP =NONE         VBTYP =NONE    
 DFTTYP=NONE         TDDFT =NONE    
 MULT  =       1     ICHARG=       0     NZVAR =       0     COORD =ZMT     
 PP    =NONE         RELWFN=NONE         LOCAL =NONE         NUMGRD=       F
 ISPHER=      -1     NOSYM =       0     MAXIT =      30     UNITS =ANGS    
 PLTORB=       F     MOLPLT=       F     AIMPAC=       F     FRIEND=        
 NPRINT=       7     IREST =       0     GEOM  =INPUT   
 NORMF =       0     NORMP =       0     ITOL  =      20     ICUT  =       9
 INTTYP=BEST         GRDTYP=BEST         QMTTOL= 1.0E-06

     $SYSTEM OPTIONS
     ---------------
  REPLICATED MEMORY=     1000000 WORDS (ON EVERY NODE).
 DISTRIBUTED MEMDDI=           0 MILLION WORDS IN AGGREGATE,
 MEMDDI DISTRIBUTED OVER   1 PROCESSORS IS           0 WORDS/PROCESSOR.
 TOTAL MEMORY REQUESTED ON EACH PROCESSOR=     1000000 WORDS.
 TIMLIM=      525600.00 MINUTES, OR     365.0 DAYS.
 PARALL= F  BALTYP=  DLB     KDIAG=    0  COREFL= F
 MXSEQ2=     300 MXSEQ3=     150

          ----------------
          PROPERTIES INPUT
          ----------------

     MOMENTS            FIELD           POTENTIAL          DENSITY
 IEMOM =       1   IEFLD =       0   IEPOT =       0   IEDEN =       0
 WHERE =COMASS     WHERE =NUCLEI     WHERE =NUCLEI     WHERE =NUCLEI  
 OUTPUT=BOTH       OUTPUT=BOTH       OUTPUT=BOTH       OUTPUT=BOTH    
 IEMINT=       0   IEFINT=       0                     IEDINT=       0
                                                       MORB  =       0
          EXTRAPOLATION IN EFFECT
          DIIS IN EFFECT
 ORBITAL PRINTING OPTION: NPREO=     1   102     2     1

     -------------------------------
     INTEGRAL TRANSFORMATION OPTIONS
     -------------------------------
     NWORD  =            0
     CUTOFF = 1.0E-09     MPTRAN =       0
     DIRTRF =       F     AOINTS =DUP     

          ----------------------
          INTEGRAL INPUT OPTIONS
          ----------------------
 NOPK  =       1 NORDER=       0 SCHWRZ=       T

     ------------------------------------------
     THE POINT GROUP IS DNH, NAXIS= 6, ORDER=24
     ------------------------------------------

     DIMENSIONS OF THE SYMMETRY SUBSPACES ARE
 A1G =   10     A1U =    1     B1U =    3     B1G =    3     A2G =    3
 A2U =    3     B2U =   10     B2G =    1     E1G =    4     E1U =   13
 E2U =    4     E2G =   13

 ..... DONE SETTING UP THE RUN .....
 STEP CPU TIME =     0.00 TOTAL CPU TIME =        0.0 (    0.0 MIN)
 TOTAL WALL CLOCK TIME=        0.0 SECONDS, CPU UTILIZATION IS   0.00%

     ---------------------------------
     HESSIAN MATRIX CONTROL PARAMETERS
     ---------------------------------
     METHOD=ANALYTIC   NVIB  =       2   VIBSIZ= 0.01000
     RDHESS=       F   PURIFY=       F   PRTIFC=       F
     VIBANL=       T   DECOMP=       F   PROJCT=       F
     SCLFAC= 1.00000   PRTSCN=       F   NPRT  =       0
     PULCOR=       F   NPUN  =       0   REDOVB=       T
     THERMOCHEMISTRY WILL BE PRINTED FOR    1 TEMPERATURES:
      298.15000

     ------------------------------
     CPHF RESPONSE SOLUTION OPTIONS
     ------------------------------
     POLAR  =       F     NWORD  =       0
     CPHF   =AO      

          ********************
          1 ELECTRON INTEGRALS
          ********************
 ...... END OF ONE-ELECTRON INTEGRALS ......
 STEP CPU TIME =     0.01 TOTAL CPU TIME =        0.0 (    0.0 MIN)
 TOTAL WALL CLOCK TIME=        0.0 SECONDS, CPU UTILIZATION IS  50.00%

          -------------
          GUESS OPTIONS
          -------------
          GUESS =HUCKEL            NORB  =       0          NORDER=       0
          MIX   =       F          PRTMO =       F          PUNMO =       F
          TOLZ  = 1.0E-08          TOLE  = 1.0E-05
          SYMDEN=       F          PURIFY=       F

 INITIAL GUESS ORBITALS GENERATED BY HUCKEL   ROUTINE.
 HUCKEL GUESS REQUIRES     89640 WORDS.

 SYMMETRIES FOR INITIAL GUESS ORBITALS FOLLOW.   BOTH SET(S).
    21 ORBITALS ARE OCCUPIED (    6 CORE ORBITALS).
     7=?A1G     8=?E1U     9=?E1U    10=?E2G    11=?E2G    12=?A1G    13=A2U 
    14=?B2U    15=?B1U    16=?E1U    17=?E1U    18=E1G     19=E1G     20=?E2G
    21=?E2G    22=E2U     23=E2U     24=B1G     25=E1U     26=E1U     27=A1G 
    28=A1G     29=A1G     30=A1G     31=A1G 
 ...... END OF INITIAL ORBITAL SELECTION ......
 STEP CPU TIME =     0.06 TOTAL CPU TIME =        0.1 (    0.0 MIN)
 TOTAL WALL CLOCK TIME=        0.1 SECONDS, CPU UTILIZATION IS  87.50%

                    ----------------------
                    AO INTEGRAL TECHNOLOGY
                    ----------------------
     S,P,L SHELL ROTATED AXIS INTEGRALS, REPROGRAMMED BY
        KAZUYA ISHIMURA (IMS) AND JOSE SIERRA (SYNSTAR).
     S,P,D,L SHELL ROTATED AXIS INTEGRALS PROGRAMMED BY
        KAZUYA ISHIMURA (INSTITUTE FOR MOLECULAR SCIENCE).
     S,P,D,F,G SHELL TO TOTAL QUARTET ANGULAR MOMENTUM SUM 5,
        ERIC PROGRAM BY GRAHAM FLETCHER (ELORET AND NASA ADVANCED
        SUPERCOMPUTING DIVISION, AMES RESEARCH CENTER).
     S,P,D,F,G,L SHELL GENERAL RYS QUADRATURE PROGRAMMED BY
        MICHEL DUPUIS (PACIFIC NORTHWEST NATIONAL LABORATORY).

          --------------------
          2 ELECTRON INTEGRALS
          --------------------

 THE -PK- OPTION IS OFF, THE INTEGRALS ARE NOT IN SUPERMATRIX FORM.
 STORING   15000 INTEGRALS/RECORD ON DISK, USING 12 BYTES/INTEGRAL.
 TWO ELECTRON INTEGRAL EVALUATION REQUIRES   91062 WORDS OF MEMORY.
 SCHWARZ INEQUALITY OVERHEAD:      5250 INTEGRALS, T=        0.01
 II,JST,KST,LST =  1  1  1  1 NREC =         1 INTLOC =    1
 II,JST,KST,LST =  2  1  1  1 NREC =         1 INTLOC =    1
 II,JST,KST,LST =  3  1  1  1 NREC =         1 INTLOC =    1
 II,JST,KST,LST =  4  1  1  1 NREC =         1 INTLOC =    1
 II,JST,KST,LST =  5  1  1  1 NREC =         1 INTLOC =    1
 II,JST,KST,LST =  6  1  1  1 NREC =         1 INTLOC =    1
 II,JST,KST,LST =  7  1  1  1 NREC =         1 INTLOC =    1
 II,JST,KST,LST =  8  1  1  1 NREC =         1 INTLOC =    1
 II,JST,KST,LST =  9  1  1  1 NREC =         1 INTLOC =    1
 II,JST,KST,LST = 10  1  1  1 NREC =         1 INTLOC =    1
 II,JST,KST,LST = 11  1  1  1 NREC =         1 INTLOC =    1
 II,JST,KST,LST = 12  1  1  1 NREC =         1 INTLOC =    1
 II,JST,KST,LST = 13  1  1  1 NREC =         1 INTLOC =    1
 II,JST,KST,LST = 14  1  1  1 NREC =         1 INTLOC =    1
 II,JST,KST,LST = 15  1  1  1 NREC =         1 INTLOC =    1
 II,JST,KST,LST = 16  1  1  1 NREC =         1 INTLOC =    1
 II,JST,KST,LST = 17  1  1  1 NREC =         1 INTLOC =    1
 II,JST,KST,LST = 18  1  1  1 NREC =         1 INTLOC =    1
 II,JST,KST,LST = 19  1  1  1 NREC =         1 INTLOC =    1
 II,JST,KST,LST = 20  1  1  1 NREC =         1 INTLOC =    1
 II,JST,KST,LST = 21  1  1  1 NREC =         1 INTLOC =    1
 II,JST,KST,LST = 22  1  1  1 NREC =         1 INTLOC =    8
 II,JST,KST,LST = 23  1  1  1 NREC =         1 INTLOC = 5910
 II,JST,KST,LST = 24  1  1  1 NREC =         4 INTLOC = 9955
 II,JST,KST,LST = 25  1  1  1 NREC =        26 INTLOC = 8285
 II,JST,KST,LST = 26  1  1  1 NREC =        26 INTLOC = 8285
 II,JST,KST,LST = 27  1  1  1 NREC =        26 INTLOC = 8285
 II,JST,KST,LST = 28  1  1  1 NREC =        26 INTLOC = 8285
 II,JST,KST,LST = 29  1  1  1 NREC =        26 INTLOC = 8285
 II,JST,KST,LST = 30  1  1  1 NREC =        26 INTLOC = 8285
 II,JST,KST,LST = 31  1  1  1 NREC =        26 INTLOC = 8285
 II,JST,KST,LST = 32  1  1  1 NREC =        26 INTLOC = 8285
 II,JST,KST,LST = 33  1  1  1 NREC =        26 INTLOC = 8285
 II,JST,KST,LST = 34  1  1  1 NREC =        26 INTLOC = 8285
 II,JST,KST,LST = 35  1  1  1 NREC =        26 INTLOC = 8285
 II,JST,KST,LST = 36  1  1  1 NREC =        33 INTLOC = 8407
 SCHWARZ INEQUALITY TEST SKIPPED        2274 INTEGRAL BLOCKS.
 TOTAL NUMBER OF NONZERO TWO-ELECTRON INTEGRALS =              633325
         43 INTEGRAL RECORDS WERE STORED ON DISK FILE  8.
  ...... END OF TWO-ELECTRON INTEGRALS .....
 STEP CPU TIME =     0.15 TOTAL CPU TIME =        0.2 (    0.0 MIN)
 TOTAL WALL CLOCK TIME=        0.2 SECONDS, CPU UTILIZATION IS  95.65%

          --------------------------
                 RHF SCF CALCULATION
          --------------------------

     NUCLEAR ENERGY =       204.8115039161
     MAXIT =   30     NPUNCH=    2
     EXTRAP=T  DAMP=F  SHIFT=F  RSTRCT=F  DIIS=T  DEM=F  SOSCF=F
     DENSITY MATRIX CONV=  1.00E-05
     MEMORY REQUIRED FOR RHF ITERS=    104921 WORDS.

 ITER EX DEM     TOTAL ENERGY        E CHANGE  DENSITY CHANGE    DIIS ERROR
   1  0  0     -230.1952021266  -230.1952021266   0.182661565   0.535398562
          * * *   INITIATING DIIS PROCEDURE   * * *
   2  1  0     -230.6714870926    -0.4762849660   0.054182332   0.109384114
   3  2  0     -230.6989593100    -0.0274722174   0.012880997   0.043160520
   4  3  0     -230.7027944169    -0.0038351069   0.005928902   0.010290113
   5  4  0     -230.7031336545    -0.0003392376   0.000479202   0.001023995
   6  5  0     -230.7031369955    -0.0000033410   0.000062938   0.000085386
   7  6  0     -230.7031370184    -0.0000000230   0.000005805   0.000004884
   8  7  0     -230.7031370187    -0.0000000002   0.000000717   0.000000843
   9  8  0     -230.7031370187    -0.0000000000   0.000000048   0.000000063

          -----------------
          DENSITY CONVERGED
          -----------------
     TIME TO FORM FOCK OPERATORS=       0.1 SECONDS (       0.0 SEC/ITER)
     TIME TO SOLVE SCF EQUATIONS=       0.1 SECONDS (       0.0 SEC/ITER)

 FINAL RHF ENERGY IS     -230.7031370187 AFTER   9 ITERATIONS

          ------------
          EIGENVECTORS
          ------------

                      1          2          3          4          5
                  -11.2294   -11.2288   -11.2288   -11.2276   -11.2276
                     A1G        E1U        E1U        E2G        E2G 
    1  C  1  S    0.406246  -0.000000   0.574677   0.574979  -0.000000
    2  C  1  S    0.011109  -0.000000   0.016060   0.016201  -0.000000
    3  C  1  X   -0.000000   0.000135  -0.000000   0.000000   0.000128
    4  C  1  Y   -0.000035  -0.000000   0.000080   0.000202  -0.000000
    5  C  1  Z   -0.000000  -0.000000  -0.000000   0.000000  -0.000000
    6  C  1  S   -0.002207  -0.000000  -0.005002  -0.009840  -0.000000
    7  C  1  X   -0.000000  -0.001239  -0.000000   0.000000  -0.001232
    8  C  1  Y    0.000325  -0.000000  -0.000235  -0.001690  -0.000000
    9  C  1  Z   -0.000000  -0.000000  -0.000000   0.000000  -0.000000
   10  C  1 XX   -0.000950  -0.000000  -0.001201  -0.000630  -0.000000
   11  C  1 YY   -0.000906  -0.000000  -0.001264  -0.000935  -0.000000
   12  C  1 ZZ   -0.001102  -0.000000  -0.001439  -0.001355  -0.000000
   13  C  1 XY   -0.000000   0.000013  -0.000000   0.000000   0.000133
   14  C  1 XZ   -0.000000  -0.000000  -0.000000   0.000000  -0.000000
   15  C  1 YZ   -0.000000  -0.000000  -0.000000   0.000000  -0.000000
   16  C  2  S    0.406246  -0.497685   0.287339  -0.287489  -0.497946
   17  C  2  S    0.011109  -0.013908   0.008030  -0.008100  -0.014030
   18  C  2  X    0.000031   0.000094   0.000024   0.000143   0.000120
   19  C  2  Y   -0.000018   0.000024   0.000121   0.000045  -0.000143
   20  C  2  Z   -0.000000  -0.000000  -0.000000   0.000000  -0.000000
   21  C  2  S   -0.002207   0.004332  -0.002501   0.004920   0.008521
   22  C  2  X   -0.000281  -0.000486  -0.000435  -0.001265  -0.000960
   23  C  2  Y    0.000162  -0.000435  -0.000988  -0.000501   0.001265
   24  C  2  Z   -0.000000  -0.000000  -0.000000   0.000000  -0.000000
   25  C  2 XX   -0.000917   0.001076  -0.000632   0.000343   0.000794
   26  C  2 YY   -0.000939   0.001059  -0.000600   0.000440   0.000561
   27  C  2 ZZ   -0.001102   0.001247  -0.000720   0.000678   0.001174
   28  C  2 XY   -0.000022  -0.000030   0.000010  -0.000134  -0.000099
   29  C  2 XZ   -0.000000  -0.000000  -0.000000   0.000000  -0.000000
   30  C  2 YZ   -0.000000  -0.000000  -0.000000   0.000000  -0.000000
   31  C  3  S    0.406246  -0.497685  -0.287339  -0.287489   0.497946
   32  C  3  S    0.011109  -0.013908  -0.008030  -0.008100   0.014030
   33  C  3  X    0.000031   0.000094  -0.000024   0.000143  -0.000120
   34  C  3  Y    0.000018  -0.000024   0.000121  -0.000045  -0.000143
   35  C  3  Z   -0.000000  -0.000000  -0.000000   0.000000  -0.000000
   36  C  3  S   -0.002207   0.004332   0.002501   0.004920  -0.008521
   37  C  3  X   -0.000281  -0.000486   0.000435  -0.001265   0.000960
   38  C  3  Y   -0.000162   0.000435  -0.000988   0.000501   0.001265
   39  C  3  Z   -0.000000  -0.000000  -0.000000   0.000000  -0.000000
   40  C  3 XX   -0.000917   0.001076   0.000632   0.000343  -0.000794
   41  C  3 YY   -0.000939   0.001059   0.000600   0.000440  -0.000561
   42  C  3 ZZ   -0.001102   0.001247   0.000720   0.000678  -0.001174
   43  C  3 XY    0.000022   0.000030   0.000010   0.000134  -0.000099
   44  C  3 XZ   -0.000000  -0.000000  -0.000000   0.000000  -0.000000
   45  C  3 YZ   -0.000000  -0.000000  -0.000000   0.000000  -0.000000
   46  C  4  S    0.406246  -0.000000  -0.574677   0.574979  -0.000000
   47  C  4  S    0.011109  -0.000000  -0.016060   0.016201  -0.000000
   48  C  4  X   -0.000000   0.000135  -0.000000   0.000000  -0.000128
   49  C  4  Y    0.000035  -0.000000   0.000080  -0.000202  -0.000000
   50  C  4  Z   -0.000000  -0.000000  -0.000000   0.000000  -0.000000
   51  C  4  S   -0.002207  -0.000000   0.005002  -0.009840  -0.000000
   52  C  4  X   -0.000000  -0.001239  -0.000000   0.000000   0.001232
   53  C  4  Y   -0.000325  -0.000000  -0.000235   0.001690  -0.000000
   54  C  4  Z   -0.000000  -0.000000  -0.000000   0.000000  -0.000000
   55  C  4 XX   -0.000950  -0.000000   0.001201  -0.000630  -0.000000
   56  C  4 YY   -0.000906  -0.000000   0.001264  -0.000935  -0.000000
   57  C  4 ZZ   -0.001102  -0.000000   0.001439  -0.001355  -0.000000
   58  C  4 XY   -0.000000  -0.000013  -0.000000   0.000000   0.000133
   59  C  4 XZ   -0.000000  -0.000000  -0.000000   0.000000  -0.000000
   60  C  4 YZ   -0.000000  -0.000000  -0.000000   0.000000  -0.000000
   61  C  5  S    0.406246   0.497685  -0.287339  -0.287489  -0.497946
   62  C  5  S    0.011109   0.013908  -0.008030  -0.008100  -0.014030
   63  C  5  X   -0.000031   0.000094   0.000024  -0.000143  -0.000120
   64  C  5  Y    0.000018   0.000024   0.000121  -0.000045   0.000143
   65  C  5  Z   -0.000000  -0.000000  -0.000000   0.000000  -0.000000
   66  C  5  S   -0.002207  -0.004332   0.002501   0.004920   0.008521
   67  C  5  X    0.000281  -0.000486  -0.000435   0.001265   0.000960
   68  C  5  Y   -0.000162  -0.000435  -0.000988   0.000501  -0.001265
   69  C  5  Z   -0.000000  -0.000000  -0.000000   0.000000  -0.000000
   70  C  5 XX   -0.000917  -0.001076   0.000632   0.000343   0.000794
   71  C  5 YY   -0.000939  -0.001059   0.000600   0.000440   0.000561
   72  C  5 ZZ   -0.001102  -0.001247   0.000720   0.000678   0.001174
   73  C  5 XY   -0.000022   0.000030  -0.000010  -0.000134  -0.000099
   74  C  5 XZ   -0.000000  -0.000000  -0.000000   0.000000  -0.000000
   75  C  5 YZ   -0.000000  -0.000000  -0.000000   0.000000  -0.000000
   76  C  6  S    0.406246   0.497685   0.287339  -0.287489   0.497946
   77  C  6  S    0.011109   0.013908   0.008030  -0.008100   0.014030
   78  C  6  X   -0.000031   0.000094  -0.000024  -0.000143   0.000120
   79  C  6  Y   -0.000018  -0.000024   0.000121   0.000045   0.000143
   80  C  6  Z   -0.000000  -0.000000  -0.000000   0.000000  -0.000000
   81  C  6  S   -0.002207  -0.004332  -0.002501   0.004920  -0.008521
   82  C  6  X    0.000281  -0.000486   0.000435   0.001265  -0.000960
   83  C  6  Y    0.000162   0.000435  -0.000988  -0.000501  -0.001265
   84  C  6  Z   -0.000000  -0.000000  -0.000000   0.000000  -0.000000
   85  C  6 XX   -0.000917  -0.001076  -0.000632   0.000343  -0.000794
   86  C  6 YY   -0.000939  -0.001059  -0.000600   0.000440  -0.000561
   87  C  6 ZZ   -0.001102  -0.001247  -0.000720   0.000678  -0.001174
   88  C  6 XY    0.000022  -0.000030  -0.000010   0.000134  -0.000099
   89  C  6 XZ   -0.000000  -0.000000  -0.000000   0.000000  -0.000000
   90  C  6 YZ   -0.000000  -0.000000  -0.000000   0.000000  -0.000000
   91  H  7  S   -0.000106  -0.000000  -0.000133  -0.000090  -0.000000
   92  H  7  S    0.000839  -0.000000   0.000926   0.000854  -0.000000
   93  H  8  S   -0.000106   0.000115  -0.000066   0.000045   0.000078
   94  H  8  S    0.000839  -0.000802   0.000463  -0.000427  -0.000740
   95  H  9  S   -0.000106   0.000115   0.000066   0.000045  -0.000078
   96  H  9  S    0.000839  -0.000802  -0.000463  -0.000427   0.000740
   97  H 10  S   -0.000106  -0.000000   0.000133  -0.000090  -0.000000
   98  H 10  S    0.000839  -0.000000  -0.000926   0.000854  -0.000000
   99  H 11  S   -0.000106  -0.000115   0.000066   0.000045   0.000078
  100  H 11  S    0.000839   0.000802  -0.000463  -0.000427  -0.000740
  101  H 12  S   -0.000106  -0.000115  -0.000066   0.000045  -0.000078
  102  H 12  S    0.000839   0.000802   0.000463  -0.000427   0.000740

                      6          7          8          9         10
                  -11.2270    -1.1480    -1.0113    -1.0113    -0.8200
                     B2U        A1G        E1U        E1U        E2G 
    1  C  1  S    0.406749  -0.092678  -0.000000  -0.128623  -0.100230
    2  C  1  S    0.011735   0.175288  -0.000000   0.247459   0.199804
    3  C  1  X   -0.000000  -0.000000  -0.115381  -0.000000   0.000000
    4  C  1  Y    0.000219   0.059942  -0.000000   0.026870  -0.065219
    5  C  1  Z   -0.000000  -0.000000  -0.000000  -0.000000   0.000000
    6  C  1  S   -0.015506   0.110649  -0.000000   0.190346   0.165349
    7  C  1  X   -0.000000  -0.000000  -0.017182  -0.000000   0.000000
    8  C  1  Y   -0.005608   0.006688  -0.000000  -0.004837  -0.058283
    9  C  1  Z   -0.000000  -0.000000  -0.000000  -0.000000   0.000000
   10  C  1 XX   -0.000139   0.008258  -0.000000   0.010032   0.000709
   11  C  1 YY   -0.000401   0.005597  -0.000000   0.007377   0.010775
   12  C  1 ZZ   -0.000805  -0.008405  -0.000000  -0.010208  -0.007146
   13  C  1 XY   -0.000000  -0.000000  -0.011843  -0.000000   0.000000
   14  C  1 XZ   -0.000000  -0.000000  -0.000000  -0.000000   0.000000
   15  C  1 YZ   -0.000000  -0.000000  -0.000000  -0.000000   0.000000
   16  C  2  S   -0.406749  -0.092678   0.111391  -0.064312   0.050115
   17  C  2  S   -0.011735   0.175288  -0.214306   0.123730  -0.099902
   18  C  2  X    0.000189  -0.051911  -0.008693  -0.061597  -0.117583
   19  C  2  Y   -0.000109   0.029971  -0.061597  -0.079818  -0.138440
   20  C  2  Z   -0.000000  -0.000000  -0.000000  -0.000000   0.000000
   21  C  2  S    0.015506   0.110649  -0.164845   0.095173  -0.082675
   22  C  2  X   -0.004857  -0.005792  -0.007923  -0.005345  -0.047788
   23  C  2  Y    0.002804   0.003344  -0.005345  -0.014096  -0.024489
   24  C  2  Z   -0.000000  -0.000000  -0.000000  -0.000000   0.000000
   25  C  2 XX    0.000336   0.006262  -0.002522   0.011712   0.003804
   26  C  2 YY    0.000204   0.007593  -0.012554  -0.003008  -0.009545
   27  C  2 ZZ    0.000805  -0.008405   0.008841  -0.005104   0.003573
   28  C  2 XY   -0.000131   0.001330   0.001811   0.005792   0.007805
   29  C  2 XZ   -0.000000  -0.000000  -0.000000  -0.000000   0.000000
   30  C  2 YZ   -0.000000  -0.000000  -0.000000  -0.000000   0.000000
   31  C  3  S    0.406749  -0.092678   0.111391   0.064312   0.050115
   32  C  3  S    0.011735   0.175288  -0.214306  -0.123730  -0.099902
   33  C  3  X   -0.000189  -0.051911  -0.008693   0.061597  -0.117583
   34  C  3  Y   -0.000109  -0.029971   0.061597  -0.079818   0.138440
   35  C  3  Z   -0.000000  -0.000000  -0.000000  -0.000000   0.000000
   36  C  3  S   -0.015506   0.110649  -0.164845  -0.095173  -0.082675
   37  C  3  X    0.004857  -0.005792  -0.007923   0.005345  -0.047788
   38  C  3  Y    0.002804  -0.003344   0.005345  -0.014096   0.024489
   39  C  3  Z   -0.000000  -0.000000  -0.000000  -0.000000   0.000000
   40  C  3 XX   -0.000336   0.006262  -0.002522  -0.011712   0.003804
   41  C  3 YY   -0.000204   0.007593  -0.012554   0.003008  -0.009545
   42  C  3 ZZ   -0.000805  -0.008405   0.008841   0.005104   0.003573
   43  C  3 XY   -0.000131  -0.001330  -0.001811   0.005792  -0.007805
   44  C  3 XZ   -0.000000  -0.000000  -0.000000  -0.000000   0.000000
   45  C  3 YZ   -0.000000  -0.000000  -0.000000  -0.000000   0.000000
   46  C  4  S   -0.406749  -0.092678  -0.000000   0.128623  -0.100230
   47  C  4  S   -0.011735   0.175288  -0.000000  -0.247459   0.199804
   48  C  4  X   -0.000000  -0.000000  -0.115381  -0.000000   0.000000
   49  C  4  Y    0.000219  -0.059942  -0.000000   0.026870   0.065219
   50  C  4  Z   -0.000000  -0.000000  -0.000000  -0.000000   0.000000
   51  C  4  S    0.015506   0.110649  -0.000000  -0.190346   0.165349
   52  C  4  X   -0.000000  -0.000000  -0.017182  -0.000000   0.000000
   53  C  4  Y   -0.005608  -0.006688  -0.000000  -0.004837   0.058283
   54  C  4  Z   -0.000000  -0.000000  -0.000000  -0.000000   0.000000
   55  C  4 XX    0.000139   0.008258  -0.000000  -0.010032   0.000709
   56  C  4 YY    0.000401   0.005597  -0.000000  -0.007377   0.010775
   57  C  4 ZZ    0.000805  -0.008405  -0.000000   0.010208  -0.007146
   58  C  4 XY   -0.000000  -0.000000   0.011843  -0.000000   0.000000
   59  C  4 XZ   -0.000000  -0.000000  -0.000000  -0.000000   0.000000
   60  C  4 YZ   -0.000000  -0.000000  -0.000000  -0.000000   0.000000
   61  C  5  S    0.406749  -0.092678  -0.111391   0.064312   0.050115
   62  C  5  S    0.011735   0.175288   0.214306  -0.123730  -0.099902
   63  C  5  X    0.000189   0.051911  -0.008693  -0.061597   0.117583
   64  C  5  Y   -0.000109  -0.029971  -0.061597  -0.079818   0.138440
   65  C  5  Z   -0.000000  -0.000000  -0.000000  -0.000000   0.000000
   66  C  5  S   -0.015506   0.110649   0.164845  -0.095173  -0.082675
   67  C  5  X   -0.004857   0.005792  -0.007923  -0.005345   0.047788
   68  C  5  Y    0.002804  -0.003344  -0.005345  -0.014096   0.024489
   69  C  5  Z   -0.000000  -0.000000  -0.000000  -0.000000   0.000000
   70  C  5 XX   -0.000336   0.006262   0.002522  -0.011712   0.003804
   71  C  5 YY   -0.000204   0.007593   0.012554   0.003008  -0.009545
   72  C  5 ZZ   -0.000805  -0.008405  -0.008841   0.005104   0.003573
   73  C  5 XY    0.000131   0.001330  -0.001811  -0.005792   0.007805
   74  C  5 XZ   -0.000000  -0.000000  -0.000000  -0.000000   0.000000
   75  C  5 YZ   -0.000000  -0.000000  -0.000000  -0.000000   0.000000
   76  C  6  S   -0.406749  -0.092678  -0.111391  -0.064312   0.050115
   77  C  6  S   -0.011735   0.175288   0.214306   0.123730  -0.099902
   78  C  6  X   -0.000189   0.051911  -0.008693   0.061597   0.117583
   79  C  6  Y   -0.000109   0.029971   0.061597  -0.079818  -0.138440
   80  C  6  Z   -0.000000  -0.000000  -0.000000  -0.000000   0.000000
   81  C  6  S    0.015506   0.110649   0.164845   0.095173  -0.082675
   82  C  6  X    0.004857   0.005792  -0.007923   0.005345   0.047788
   83  C  6  Y    0.002804   0.003344   0.005345  -0.014096  -0.024489
   84  C  6  Z   -0.000000  -0.000000  -0.000000  -0.000000   0.000000
   85  C  6 XX    0.000336   0.006262   0.002522   0.011712   0.003804
   86  C  6 YY    0.000204   0.007593   0.012554  -0.003008  -0.009545
   87  C  6 ZZ    0.000805  -0.008405  -0.008841  -0.005104   0.003573
   88  C  6 XY    0.000131  -0.001330   0.001811  -0.005792  -0.007805
   89  C  6 XZ   -0.000000  -0.000000  -0.000000  -0.000000   0.000000
   90  C  6 YZ   -0.000000  -0.000000  -0.000000  -0.000000   0.000000
   91  H  7  S   -0.000153   0.035242  -0.000000   0.076927   0.113377
   92  H  7  S   -0.000225   0.003490  -0.000000   0.014618   0.034441
   93  H  8  S    0.000153   0.035242  -0.066621   0.038464  -0.056688
   94  H  8  S    0.000225   0.003490  -0.012660   0.007309  -0.017220
   95  H  9  S   -0.000153   0.035242  -0.066621  -0.038464  -0.056688
   96  H  9  S   -0.000225   0.003490  -0.012660  -0.007309  -0.017220
   97  H 10  S    0.000153   0.035242  -0.000000  -0.076927   0.113377
   98  H 10  S    0.000225   0.003490  -0.000000  -0.014618   0.034441
   99  H 11  S   -0.000153   0.035242   0.066621  -0.038464  -0.056688
  100  H 11  S   -0.000225   0.003490   0.012660  -0.007309  -0.017220
  101  H 12  S    0.000153   0.035242   0.066621   0.038464  -0.056688
  102  H 12  S    0.000225   0.003490   0.012660   0.007309  -0.017220

                     11         12         13         14         15
                   -0.8200    -0.7072    -0.6398    -0.6140    -0.5842
                     E2G        A1G        B2U        B1U        E1U 
    1  C  1  S    0.000000   0.007813   0.056097  -0.000000   0.000000
    2  C  1  S    0.000000  -0.013971  -0.115166  -0.000000   0.000000
    3  C  1  X    0.206327   0.000000  -0.000000   0.272661  -0.086422
    4  C  1  Y    0.000000   0.194244   0.132332  -0.000000   0.000000
    5  C  1  Z    0.000000   0.000000  -0.000000  -0.000000   0.000000
    6  C  1  S    0.000000  -0.033683  -0.058058  -0.000000   0.000000
    7  C  1  X    0.052079   0.000000  -0.000000   0.095199  -0.028589
    8  C  1  Y    0.000000   0.070634   0.128161  -0.000000   0.000000
    9  C  1  Z    0.000000   0.000000  -0.000000  -0.000000   0.000000
   10  C  1 XX    0.000000   0.000004   0.012837  -0.000000   0.000000
   11  C  1 YY    0.000000  -0.005201  -0.019046  -0.000000   0.000000
   12  C  1 ZZ    0.000000   0.000580   0.003521  -0.000000   0.000000
   13  C  1 XY    0.012213   0.000000  -0.000000   0.009599  -0.014874
   14  C  1 XZ    0.000000   0.000000  -0.000000  -0.000000   0.000000
   15  C  1 YZ    0.000000   0.000000  -0.000000  -0.000000   0.000000
   16  C  2  S   -0.086802   0.007813  -0.056097  -0.000000   0.018045
   17  C  2  S    0.173035  -0.013971   0.115166  -0.000000  -0.039805
   18  C  2  X   -0.002667  -0.168220   0.114603  -0.136330   0.199542
   19  C  2  Y   -0.117583   0.097122  -0.066166  -0.236131  -0.165102
   20  C  2  Z    0.000000   0.000000  -0.000000  -0.000000   0.000000
   21  C  2  S    0.143196  -0.033683   0.058058  -0.000000  -0.027504
   22  C  2  X    0.030692  -0.061171   0.110990  -0.047600   0.089160
   23  C  2  Y   -0.047788   0.035317  -0.064080  -0.082445  -0.067982
   24  C  2  Z    0.000000   0.000000  -0.000000  -0.000000   0.000000
   25  C  2 XX    0.011732  -0.003900   0.011075   0.007199   0.014344
   26  C  2 YY   -0.001787  -0.001297  -0.004866  -0.007199  -0.007584
   27  C  2 ZZ   -0.006189   0.000580  -0.003521  -0.000000   0.000045
   28  C  2 XY   -0.001305   0.002603  -0.015941   0.004799  -0.007054
   29  C  2 XZ    0.000000   0.000000  -0.000000  -0.000000   0.000000
   30  C  2 YZ    0.000000   0.000000  -0.000000  -0.000000   0.000000
   31  C  3  S    0.086802   0.007813   0.056097  -0.000000   0.018045
   32  C  3  S   -0.173035  -0.013971  -0.115166  -0.000000  -0.039805
   33  C  3  X    0.002667  -0.168220  -0.114603  -0.136330   0.199542
   34  C  3  Y   -0.117583  -0.097122  -0.066166   0.236131   0.165102
   35  C  3  Z    0.000000   0.000000  -0.000000  -0.000000   0.000000
   36  C  3  S   -0.143196  -0.033683  -0.058058  -0.000000  -0.027504
   37  C  3  X   -0.030692  -0.061171  -0.110990  -0.047600   0.089160
   38  C  3  Y   -0.047788  -0.035317  -0.064080   0.082445   0.067982
   39  C  3  Z    0.000000   0.000000  -0.000000  -0.000000   0.000000
   40  C  3 XX   -0.011732  -0.003900  -0.011075   0.007199   0.014344
   41  C  3 YY    0.001787  -0.001297   0.004866  -0.007199  -0.007584
   42  C  3 ZZ    0.006189   0.000580   0.003521  -0.000000   0.000045
   43  C  3 XY   -0.001305  -0.002603  -0.015941  -0.004799   0.007054
   44  C  3 XZ    0.000000   0.000000  -0.000000  -0.000000   0.000000
   45  C  3 YZ    0.000000   0.000000  -0.000000  -0.000000   0.000000
   46  C  4  S    0.000000   0.007813  -0.056097  -0.000000   0.000000
   47  C  4  S    0.000000  -0.013971   0.115166  -0.000000   0.000000
   48  C  4  X   -0.206327   0.000000  -0.000000   0.272661  -0.086422
   49  C  4  Y    0.000000  -0.194244   0.132332  -0.000000   0.000000
   50  C  4  Z    0.000000   0.000000  -0.000000  -0.000000   0.000000
   51  C  4  S    0.000000  -0.033683   0.058058  -0.000000   0.000000
   52  C  4  X   -0.052079   0.000000  -0.000000   0.095199  -0.028589
   53  C  4  Y    0.000000  -0.070634   0.128161  -0.000000   0.000000
   54  C  4  Z    0.000000   0.000000  -0.000000  -0.000000   0.000000
   55  C  4 XX    0.000000   0.000004  -0.012837  -0.000000   0.000000
   56  C  4 YY    0.000000  -0.005201   0.019046  -0.000000   0.000000
   57  C  4 ZZ    0.000000   0.000580  -0.003521  -0.000000   0.000000
   58  C  4 XY    0.012213   0.000000  -0.000000  -0.009599   0.014874
   59  C  4 XZ    0.000000   0.000000  -0.000000  -0.000000   0.000000
   60  C  4 YZ    0.000000   0.000000  -0.000000  -0.000000   0.000000
   61  C  5  S   -0.086802   0.007813   0.056097  -0.000000  -0.018045
   62  C  5  S    0.173035  -0.013971  -0.115166  -0.000000   0.039805
   63  C  5  X    0.002667   0.168220   0.114603  -0.136330   0.199542
   64  C  5  Y    0.117583  -0.097122  -0.066166  -0.236131  -0.165102
   65  C  5  Z    0.000000   0.000000  -0.000000  -0.000000   0.000000
   66  C  5  S    0.143196  -0.033683  -0.058058  -0.000000   0.027504
   67  C  5  X   -0.030692   0.061171   0.110990  -0.047600   0.089160
   68  C  5  Y    0.047788  -0.035317  -0.064080  -0.082445  -0.067982
   69  C  5  Z    0.000000   0.000000  -0.000000  -0.000000   0.000000
   70  C  5 XX    0.011732  -0.003900  -0.011075  -0.007199  -0.014344
   71  C  5 YY   -0.001787  -0.001297   0.004866   0.007199   0.007584
   72  C  5 ZZ   -0.006189   0.000580   0.003521  -0.000000  -0.000045
   73  C  5 XY   -0.001305   0.002603   0.015941  -0.004799   0.007054
   74  C  5 XZ    0.000000   0.000000  -0.000000  -0.000000   0.000000
   75  C  5 YZ    0.000000   0.000000  -0.000000  -0.000000   0.000000
   76  C  6  S    0.086802   0.007813  -0.056097  -0.000000  -0.018045
   77  C  6  S   -0.173035  -0.013971   0.115166  -0.000000   0.039805
   78  C  6  X   -0.002667   0.168220  -0.114603  -0.136330   0.199542
   79  C  6  Y    0.117583   0.097122  -0.066166   0.236131   0.165102
   80  C  6  Z    0.000000   0.000000  -0.000000  -0.000000   0.000000
   81  C  6  S   -0.143196  -0.033683   0.058058  -0.000000   0.027504
   82  C  6  X    0.030692   0.061171  -0.110990  -0.047600   0.089160
   83  C  6  Y    0.047788   0.035317  -0.064080   0.082445   0.067982
   84  C  6  Z    0.000000   0.000000  -0.000000  -0.000000   0.000000
   85  C  6 XX   -0.011732  -0.003900   0.011075  -0.007199  -0.014344
   86  C  6 YY    0.001787  -0.001297  -0.004866   0.007199   0.007584
   87  C  6 ZZ    0.006189   0.000580  -0.003521  -0.000000  -0.000045
   88  C  6 XY   -0.001305  -0.002603   0.015941   0.004799  -0.007054
   89  C  6 XZ    0.000000   0.000000  -0.000000  -0.000000   0.000000
   90  C  6 YZ    0.000000   0.000000  -0.000000  -0.000000   0.000000
   91  H  7  S    0.000000  -0.111268  -0.136979  -0.000000   0.000000
   92  H  7  S    0.000000  -0.065166  -0.066644  -0.000000   0.000000
   93  H  8  S    0.098187  -0.111268   0.136979  -0.000000   0.142741
   94  H  8  S    0.029826  -0.065166   0.066644  -0.000000   0.109538
   95  H  9  S   -0.098187  -0.111268  -0.136979  -0.000000   0.142741
   96  H  9  S   -0.029826  -0.065166  -0.066644  -0.000000   0.109538
   97  H 10  S    0.000000  -0.111268   0.136979  -0.000000   0.000000
   98  H 10  S    0.000000  -0.065166   0.066644  -0.000000   0.000000
   99  H 11  S    0.098187  -0.111268  -0.136979  -0.000000  -0.142741
  100  H 11  S    0.029826  -0.065166  -0.066644  -0.000000  -0.109538
  101  H 12  S   -0.098187  -0.111268   0.136979  -0.000000  -0.142741
  102  H 12  S   -0.029826  -0.065166   0.066644  -0.000000  -0.109538

                     16         17         18         19         20
                   -0.5842    -0.4980    -0.4895    -0.4895    -0.3306
                     E1U        A2U        E2G        E2G        E1G 
    1  C  1  S   -0.020836   0.000000   0.004757   0.000000   0.000000
    2  C  1  S    0.045962   0.000000  -0.015369   0.000000   0.000000
    3  C  1  X    0.000000   0.000000  -0.000000   0.257290   0.000000
    4  C  1  Y    0.294863   0.000000  -0.223517   0.000000   0.000000
    5  C  1  Z    0.000000   0.210063  -0.000000   0.000000   0.314666
    6  C  1  S    0.031759   0.000000   0.006049   0.000000   0.000000
    7  C  1  X    0.000000   0.000000  -0.000000   0.111995   0.000000
    8  C  1  Y    0.128409   0.000000  -0.127323   0.000000   0.000000
    9  C  1  Z    0.000000   0.135782  -0.000000   0.000000   0.266598
   10  C  1 XX    0.008537   0.000000  -0.018574   0.000000   0.000000
   11  C  1 YY   -0.016342   0.000000   0.027067   0.000000   0.000000
   12  C  1 ZZ   -0.000052   0.000000  -0.000918   0.000000   0.000000
   13  C  1 XY    0.000000   0.000000  -0.000000   0.015684   0.000000
   14  C  1 XZ    0.000000   0.000000  -0.000000   0.000000   0.000000
   15  C  1 YZ    0.000000   0.012015  -0.000000   0.000000   0.009390
   16  C  2  S   -0.010418   0.000000  -0.002379  -0.004120   0.000000
   17  C  2  S    0.022981   0.000000   0.007684   0.013310   0.000000
   18  C  2  X   -0.165102   0.000000   0.014624  -0.231961   0.000000
   19  C  2  Y    0.008899   0.000000   0.248847  -0.014624   0.000000
   20  C  2  Z    0.000000   0.210063  -0.000000   0.000000   0.157333
   21  C  2  S    0.015880   0.000000  -0.003025  -0.005239   0.000000
   22  C  2  X   -0.067982   0.000000  -0.006637  -0.123491   0.000000
   23  C  2  Y    0.010660   0.000000   0.115827   0.006637   0.000000
   24  C  2  Z    0.000000   0.135782  -0.000000   0.000000   0.133299
   25  C  2 XX    0.004600   0.000000  -0.018015  -0.007678   0.000000
   26  C  2 YY   -0.008503   0.000000   0.013769   0.000322   0.000000
   27  C  2 ZZ   -0.000026   0.000000   0.000459   0.000795   0.000000
   28  C  2 XY    0.012660   0.000000   0.004619   0.023684   0.000000
   29  C  2 XZ    0.000000  -0.010405  -0.000000   0.000000  -0.013551
   30  C  2 YZ    0.000000   0.006008  -0.000000   0.000000  -0.014081
   31  C  3  S    0.010418   0.000000  -0.002379   0.004120   0.000000
   32  C  3  S   -0.022981   0.000000   0.007684  -0.013310   0.000000
   33  C  3  X    0.165102   0.000000   0.014624   0.231961   0.000000
   34  C  3  Y    0.008899   0.000000  -0.248847  -0.014624   0.000000
   35  C  3  Z    0.000000   0.210063  -0.000000   0.000000  -0.157333
   36  C  3  S   -0.015880   0.000000  -0.003025   0.005239   0.000000
   37  C  3  X    0.067982   0.000000  -0.006637   0.123491   0.000000
   38  C  3  Y    0.010660   0.000000  -0.115827   0.006637   0.000000
   39  C  3  Z    0.000000   0.135782  -0.000000   0.000000  -0.133299
   40  C  3 XX   -0.004600   0.000000  -0.018015   0.007678   0.000000
   41  C  3 YY    0.008503   0.000000   0.013769  -0.000322   0.000000
   42  C  3 ZZ    0.000026   0.000000   0.000459  -0.000795   0.000000
   43  C  3 XY    0.012660   0.000000  -0.004619   0.023684   0.000000
   44  C  3 XZ    0.000000  -0.010405  -0.000000   0.000000   0.013551
   45  C  3 YZ    0.000000  -0.006008  -0.000000   0.000000  -0.014081
   46  C  4  S    0.020836   0.000000   0.004757   0.000000   0.000000
   47  C  4  S   -0.045962   0.000000  -0.015369   0.000000   0.000000
   48  C  4  X    0.000000   0.000000  -0.000000  -0.257290   0.000000
   49  C  4  Y    0.294863   0.000000   0.223517   0.000000   0.000000
   50  C  4  Z    0.000000   0.210063  -0.000000   0.000000  -0.314666
   51  C  4  S   -0.031759   0.000000   0.006049   0.000000   0.000000
   52  C  4  X    0.000000   0.000000  -0.000000  -0.111995   0.000000
   53  C  4  Y    0.128409   0.000000   0.127323   0.000000   0.000000
   54  C  4  Z    0.000000   0.135782  -0.000000   0.000000  -0.266598
   55  C  4 XX   -0.008537   0.000000  -0.018574   0.000000   0.000000
   56  C  4 YY    0.016342   0.000000   0.027067   0.000000   0.000000
   57  C  4 ZZ    0.000052   0.000000  -0.000918   0.000000   0.000000
   58  C  4 XY    0.000000   0.000000  -0.000000   0.015684   0.000000
   59  C  4 XZ    0.000000   0.000000  -0.000000   0.000000   0.000000
   60  C  4 YZ    0.000000  -0.012015  -0.000000   0.000000   0.009390
   61  C  5  S    0.010418   0.000000  -0.002379  -0.004120   0.000000
   62  C  5  S   -0.022981   0.000000   0.007684   0.013310   0.000000
   63  C  5  X   -0.165102   0.000000  -0.014624   0.231961   0.000000
   64  C  5  Y    0.008899   0.000000  -0.248847   0.014624   0.000000
   65  C  5  Z    0.000000   0.210063  -0.000000   0.000000  -0.157333
   66  C  5  S   -0.015880   0.000000  -0.003025  -0.005239   0.000000
   67  C  5  X   -0.067982   0.000000   0.006637   0.123491   0.000000
   68  C  5  Y    0.010660   0.000000  -0.115827  -0.006637   0.000000
   69  C  5  Z    0.000000   0.135782  -0.000000   0.000000  -0.133299
   70  C  5 XX   -0.004600   0.000000  -0.018015  -0.007678   0.000000
   71  C  5 YY    0.008503   0.000000   0.013769   0.000322   0.000000
   72  C  5 ZZ    0.000026   0.000000   0.000459   0.000795   0.000000
   73  C  5 XY   -0.012660   0.000000   0.004619   0.023684   0.000000
   74  C  5 XZ    0.000000   0.010405  -0.000000   0.000000  -0.013551
   75  C  5 YZ    0.000000  -0.006008  -0.000000   0.000000  -0.014081
   76  C  6  S   -0.010418   0.000000  -0.002379   0.004120   0.000000
   77  C  6  S    0.022981   0.000000   0.007684  -0.013310   0.000000
   78  C  6  X    0.165102   0.000000  -0.014624  -0.231961   0.000000
   79  C  6  Y    0.008899   0.000000   0.248847   0.014624   0.000000
   80  C  6  Z    0.000000   0.210063  -0.000000   0.000000   0.157333
   81  C  6  S    0.015880   0.000000  -0.003025   0.005239   0.000000
   82  C  6  X    0.067982   0.000000   0.006637  -0.123491   0.000000
   83  C  6  Y    0.010660   0.000000   0.115827  -0.006637   0.000000
   84  C  6  Z    0.000000   0.135782  -0.000000   0.000000   0.133299
   85  C  6 XX    0.004600   0.000000  -0.018015   0.007678   0.000000
   86  C  6 YY   -0.008503   0.000000   0.013769  -0.000322   0.000000
   87  C  6 ZZ   -0.000026   0.000000   0.000459  -0.000795   0.000000
   88  C  6 XY   -0.012660   0.000000  -0.004619   0.023684   0.000000
   89  C  6 XZ    0.000000   0.010405  -0.000000   0.000000   0.013551
   90  C  6 YZ    0.000000   0.006008  -0.000000   0.000000  -0.014081
   91  H  7  S   -0.164824   0.000000   0.163402   0.000000   0.000000
   92  H  7  S   -0.126484   0.000000   0.144299   0.000000   0.000000
   93  H  8  S   -0.082412   0.000000  -0.081701  -0.141511   0.000000
   94  H  8  S   -0.063242   0.000000  -0.072150  -0.124967   0.000000
   95  H  9  S    0.082412   0.000000  -0.081701   0.141511   0.000000
   96  H  9  S    0.063242   0.000000  -0.072150   0.124967   0.000000
   97  H 10  S    0.164824   0.000000   0.163402   0.000000   0.000000
   98  H 10  S    0.126484   0.000000   0.144299   0.000000   0.000000
   99  H 11  S    0.082412   0.000000  -0.081701  -0.141511   0.000000
  100  H 11  S    0.063242   0.000000  -0.072150  -0.124967   0.000000
  101  H 12  S   -0.082412   0.000000  -0.081701   0.141511   0.000000
  102  H 12  S   -0.063242   0.000000  -0.072150   0.124967   0.000000

                     21         22         23         24         25
                   -0.3306     0.1498     0.1498     0.2359     0.2945
                     E1G        E2U        E2U        A1G        E1U 
    1  C  1  S   -0.000000   0.000000   0.000000   0.037824  -0.000000
    2  C  1  S   -0.000000   0.000000   0.000000  -0.046452  -0.000000
    3  C  1  X   -0.000000   0.000000   0.000000   0.000000   0.016563
    4  C  1  Y   -0.000000   0.000000   0.000000   0.107715  -0.000000
    5  C  1  Z   -0.000000   0.000000   0.309712   0.000000  -0.000000
    6  C  1  S   -0.000000   0.000000   0.000000  -0.565747  -0.000000
    7  C  1  X   -0.000000   0.000000   0.000000   0.000000  -0.322140
    8  C  1  Y   -0.000000   0.000000   0.000000   0.312134  -0.000000
    9  C  1  Z   -0.000000   0.000000   0.573847   0.000000  -0.000000
   10  C  1 XX   -0.000000   0.000000   0.000000  -0.011735  -0.000000
   11  C  1 YY   -0.000000   0.000000   0.000000   0.017777  -0.000000
   12  C  1 ZZ   -0.000000   0.000000   0.000000   0.000474  -0.000000
   13  C  1 XY   -0.000000   0.000000   0.000000   0.000000  -0.011716
   14  C  1 XZ   -0.021905  -0.033155   0.000000   0.000000  -0.000000
   15  C  1 YZ   -0.000000   0.000000  -0.009922   0.000000  -0.000000
   16  C  2  S   -0.000000   0.000000   0.000000   0.037824  -0.033052
   17  C  2  S   -0.000000   0.000000   0.000000  -0.046452   0.012148
   18  C  2  X   -0.000000   0.000000   0.000000  -0.093284   0.155318
   19  C  2  Y   -0.000000   0.000000   0.000000   0.053857  -0.080110
   20  C  2  Z   -0.272509  -0.268218  -0.154856   0.000000  -0.000000
   21  C  2  S   -0.000000   0.000000   0.000000  -0.565747   1.004512
   22  C  2  X   -0.000000   0.000000   0.000000  -0.270316   0.441676
   23  C  2  Y   -0.000000   0.000000   0.000000   0.156067  -0.440989
   24  C  2  Z   -0.230881  -0.496966  -0.286923   0.000000  -0.000000
   25  C  2 XX   -0.000000   0.000000   0.000000   0.010399   0.002406
   26  C  2 YY   -0.000000   0.000000   0.000000  -0.004357  -0.001272
   27  C  2 ZZ   -0.000000   0.000000   0.000000   0.000474  -0.004139
   28  C  2 XY   -0.000000   0.000000   0.000000  -0.014756   0.008038
   29  C  2 XZ    0.001566   0.000847  -0.018653   0.000000  -0.000000
   30  C  2 YZ   -0.013551   0.018653  -0.022386   0.000000  -0.000000
   31  C  3  S   -0.000000   0.000000   0.000000   0.037824  -0.033052
   32  C  3  S   -0.000000   0.000000   0.000000  -0.046452   0.012148
   33  C  3  X   -0.000000   0.000000   0.000000  -0.093284   0.155318
   34  C  3  Y   -0.000000   0.000000   0.000000  -0.053857   0.080110
   35  C  3  Z   -0.272509   0.268218  -0.154856   0.000000  -0.000000
   36  C  3  S   -0.000000   0.000000   0.000000  -0.565747   1.004512
   37  C  3  X   -0.000000   0.000000   0.000000  -0.270316   0.441676
   38  C  3  Y   -0.000000   0.000000   0.000000  -0.156067   0.440989
   39  C  3  Z   -0.230881   0.496966  -0.286923   0.000000  -0.000000
   40  C  3 XX   -0.000000   0.000000   0.000000   0.010399   0.002406
   41  C  3 YY   -0.000000   0.000000   0.000000  -0.004357  -0.001272
   42  C  3 ZZ   -0.000000   0.000000   0.000000   0.000474  -0.004139
   43  C  3 XY   -0.000000   0.000000   0.000000   0.014756  -0.008038
   44  C  3 XZ    0.001566  -0.000847  -0.018653   0.000000  -0.000000
   45  C  3 YZ    0.013551   0.018653   0.022386   0.000000  -0.000000
   46  C  4  S   -0.000000   0.000000   0.000000   0.037824  -0.000000
   47  C  4  S   -0.000000   0.000000   0.000000  -0.046452  -0.000000
   48  C  4  X   -0.000000   0.000000   0.000000   0.000000   0.016563
   49  C  4  Y   -0.000000   0.000000   0.000000  -0.107715  -0.000000
   50  C  4  Z   -0.000000   0.000000   0.309712   0.000000  -0.000000
   51  C  4  S   -0.000000   0.000000   0.000000  -0.565747  -0.000000
   52  C  4  X   -0.000000   0.000000   0.000000   0.000000  -0.322140
   53  C  4  Y   -0.000000   0.000000   0.000000  -0.312134  -0.000000
   54  C  4  Z   -0.000000   0.000000   0.573847   0.000000  -0.000000
   55  C  4 XX   -0.000000   0.000000   0.000000  -0.011735  -0.000000
   56  C  4 YY   -0.000000   0.000000   0.000000   0.017777  -0.000000
   57  C  4 ZZ   -0.000000   0.000000   0.000000   0.000474  -0.000000
   58  C  4 XY   -0.000000   0.000000   0.000000   0.000000   0.011716
   59  C  4 XZ   -0.021905   0.033155   0.000000   0.000000  -0.000000
   60  C  4 YZ   -0.000000   0.000000   0.009922   0.000000  -0.000000
   61  C  5  S   -0.000000   0.000000   0.000000   0.037824   0.033052
   62  C  5  S   -0.000000   0.000000   0.000000  -0.046452  -0.012148
   63  C  5  X   -0.000000   0.000000   0.000000   0.093284   0.155318
   64  C  5  Y   -0.000000   0.000000   0.000000  -0.053857  -0.080110
   65  C  5  Z    0.272509  -0.268218  -0.154856   0.000000  -0.000000
   66  C  5  S   -0.000000   0.000000   0.000000  -0.565747  -1.004512
   67  C  5  X   -0.000000   0.000000   0.000000   0.270316   0.441676
   68  C  5  Y   -0.000000   0.000000   0.000000  -0.156067  -0.440989
   69  C  5  Z    0.230881  -0.496966  -0.286923   0.000000  -0.000000
   70  C  5 XX   -0.000000   0.000000   0.000000   0.010399  -0.002406
   71  C  5 YY   -0.000000   0.000000   0.000000  -0.004357   0.001272
   72  C  5 ZZ   -0.000000   0.000000   0.000000   0.000474   0.004139
   73  C  5 XY   -0.000000   0.000000   0.000000  -0.014756  -0.008038
   74  C  5 XZ    0.001566  -0.000847   0.018653   0.000000  -0.000000
   75  C  5 YZ   -0.013551  -0.018653   0.022386   0.000000  -0.000000
   76  C  6  S   -0.000000   0.000000   0.000000   0.037824   0.033052
   77  C  6  S   -0.000000   0.000000   0.000000  -0.046452  -0.012148
   78  C  6  X   -0.000000   0.000000   0.000000   0.093284   0.155318
   79  C  6  Y   -0.000000   0.000000   0.000000   0.053857   0.080110
   80  C  6  Z    0.272509   0.268218  -0.154856   0.000000  -0.000000
   81  C  6  S   -0.000000   0.000000   0.000000  -0.565747  -1.004512
   82  C  6  X   -0.000000   0.000000   0.000000   0.270316   0.441676
   83  C  6  Y   -0.000000   0.000000   0.000000   0.156067   0.440989
   84  C  6  Z    0.230881   0.496966  -0.286923   0.000000  -0.000000
   85  C  6 XX   -0.000000   0.000000   0.000000   0.010399  -0.002406
   86  C  6 YY   -0.000000   0.000000   0.000000  -0.004357   0.001272
   87  C  6 ZZ   -0.000000   0.000000   0.000000   0.000474   0.004139
   88  C  6 XY   -0.000000   0.000000   0.000000   0.014756   0.008038
   89  C  6 XZ    0.001566   0.000847   0.018653   0.000000  -0.000000
   90  C  6 YZ    0.013551  -0.018653  -0.022386   0.000000  -0.000000
   91  H  7  S   -0.000000   0.000000   0.000000   0.033352  -0.000000
   92  H  7  S   -0.000000   0.000000   0.000000   0.790533  -0.000000
   93  H  8  S   -0.000000   0.000000   0.000000   0.033352  -0.004762
   94  H  8  S   -0.000000   0.000000   0.000000   0.790533  -1.178022
   95  H  9  S   -0.000000   0.000000   0.000000   0.033352  -0.004762
   96  H  9  S   -0.000000   0.000000   0.000000   0.790533  -1.178022
   97  H 10  S   -0.000000   0.000000   0.000000   0.033352  -0.000000
   98  H 10  S   -0.000000   0.000000   0.000000   0.790533  -0.000000
   99  H 11  S   -0.000000   0.000000   0.000000   0.033352   0.004762
  100  H 11  S   -0.000000   0.000000   0.000000   0.790533   1.178022
  101  H 12  S   -0.000000   0.000000   0.000000   0.033352   0.004762
  102  H 12  S   -0.000000   0.000000   0.000000   0.790533   1.178022

                     26         27         28         29         30
                    0.2945     0.3337     0.3337     0.3387     0.3713
                     E1U        E2G        E2G        B2U        B1G 
    1  C  1  S    0.038166  -0.077700   0.000000   0.042641  -0.000000
    2  C  1  S   -0.014027   0.087814   0.000000  -0.144347  -0.000000
    3  C  1  X   -0.000000  -0.000000   0.051507  -0.000000  -0.000000
    4  C  1  Y    0.201569  -0.101762   0.000000   0.060035  -0.000000
    5  C  1  Z   -0.000000  -0.000000   0.000000  -0.000000   0.235573
    6  C  1  S   -1.159910   1.547227   0.000000   0.737154  -0.000000
    7  C  1  X   -0.000000  -0.000000   0.423343  -0.000000  -0.000000
    8  C  1  Y    0.696281  -0.792696   0.000000   1.730239  -0.000000
    9  C  1  Z   -0.000000  -0.000000   0.000000  -0.000000   0.691389
   10  C  1 XX   -0.006554  -0.008675   0.000000   0.019003  -0.000000
   11  C  1 YY    0.005245   0.007935   0.000000   0.004910  -0.000000
   12  C  1 ZZ    0.004780  -0.002994   0.000000  -0.010547  -0.000000
   13  C  1 XY   -0.000000  -0.000000  -0.010654  -0.000000  -0.000000
   14  C  1 XZ   -0.000000  -0.000000   0.000000  -0.000000  -0.000000
   15  C  1 YZ   -0.000000  -0.000000   0.000000  -0.000000  -0.016452
   16  C  2  S    0.019083   0.038850   0.067290  -0.042641  -0.000000
   17  C  2  S   -0.007014  -0.043907  -0.076049   0.144347  -0.000000
   18  C  2  X   -0.080110  -0.021761  -0.089198   0.051992  -0.000000
   19  C  2  Y    0.062815   0.064071   0.021761  -0.030017  -0.000000
   20  C  2  Z   -0.000000  -0.000000   0.000000  -0.000000  -0.235573
   21  C  2  S   -0.579955  -0.773614  -1.339938  -0.737154  -0.000000
   22  C  2  X   -0.440989  -0.159935  -0.700358   1.498431  -0.000000
   23  C  2  Y   -0.067535   0.515681   0.159935  -0.865120  -0.000000
   24  C  2  Z   -0.000000  -0.000000   0.000000  -0.000000  -0.691389
   25  C  2 XX    0.008757   0.005029  -0.007271  -0.008433  -0.000000
   26  C  2 YY   -0.009412  -0.004659   0.007912  -0.015480  -0.000000
   27  C  2 ZZ    0.002390   0.001497   0.002593   0.010547  -0.000000
   28  C  2 XY    0.002123   0.008766   0.004529  -0.007046  -0.000000
   29  C  2 XZ   -0.000000  -0.000000   0.000000  -0.000000  -0.014248
   30  C  2 YZ   -0.000000  -0.000000   0.000000  -0.000000   0.008226
   31  C  3  S   -0.019083   0.038850  -0.067290   0.042641  -0.000000
   32  C  3  S    0.007014  -0.043907   0.076049  -0.144347  -0.000000
   33  C  3  X    0.080110  -0.021761   0.089198  -0.051992  -0.000000
   34  C  3  Y    0.062815  -0.064071   0.021761  -0.030017  -0.000000
   35  C  3  Z   -0.000000  -0.000000   0.000000  -0.000000   0.235573
   36  C  3  S    0.579955  -0.773614   1.339938   0.737154  -0.000000
   37  C  3  X    0.440989  -0.159935   0.700358  -1.498431  -0.000000
   38  C  3  Y   -0.067535  -0.515681   0.159935  -0.865120  -0.000000
   39  C  3  Z   -0.000000  -0.000000   0.000000  -0.000000   0.691389
   40  C  3 XX   -0.008757   0.005029   0.007271   0.008433  -0.000000
   41  C  3 YY    0.009412  -0.004659  -0.007912   0.015480  -0.000000
   42  C  3 ZZ   -0.002390   0.001497  -0.002593  -0.010547  -0.000000
   43  C  3 XY    0.002123  -0.008766   0.004529  -0.007046  -0.000000
   44  C  3 XZ   -0.000000  -0.000000   0.000000  -0.000000   0.014248
   45  C  3 YZ   -0.000000  -0.000000   0.000000  -0.000000   0.008226
   46  C  4  S   -0.038166  -0.077700   0.000000  -0.042641  -0.000000
   47  C  4  S    0.014027   0.087814   0.000000   0.144347  -0.000000
   48  C  4  X   -0.000000  -0.000000  -0.051507  -0.000000  -0.000000
   49  C  4  Y    0.201569   0.101762   0.000000   0.060035  -0.000000
   50  C  4  Z   -0.000000  -0.000000   0.000000  -0.000000  -0.235573
   51  C  4  S    1.159910   1.547227   0.000000  -0.737154  -0.000000
   52  C  4  X   -0.000000  -0.000000  -0.423343  -0.000000  -0.000000
   53  C  4  Y    0.696281   0.792696   0.000000   1.730239  -0.000000
   54  C  4  Z   -0.000000  -0.000000   0.000000  -0.000000  -0.691389
   55  C  4 XX    0.006554  -0.008675   0.000000  -0.019003  -0.000000
   56  C  4 YY   -0.005245   0.007935   0.000000  -0.004910  -0.000000
   57  C  4 ZZ   -0.004780  -0.002994   0.000000   0.010547  -0.000000
   58  C  4 XY   -0.000000  -0.000000  -0.010654  -0.000000  -0.000000
   59  C  4 XZ   -0.000000  -0.000000   0.000000  -0.000000  -0.000000
   60  C  4 YZ   -0.000000  -0.000000   0.000000  -0.000000  -0.016452
   61  C  5  S   -0.019083   0.038850   0.067290   0.042641  -0.000000
   62  C  5  S    0.007014  -0.043907  -0.076049  -0.144347  -0.000000
   63  C  5  X   -0.080110   0.021761   0.089198   0.051992  -0.000000
   64  C  5  Y    0.062815  -0.064071  -0.021761  -0.030017  -0.000000
   65  C  5  Z   -0.000000  -0.000000   0.000000  -0.000000   0.235573
   66  C  5  S    0.579955  -0.773614  -1.339938   0.737154  -0.000000
   67  C  5  X   -0.440989   0.159935   0.700358   1.498431  -0.000000
   68  C  5  Y   -0.067535  -0.515681  -0.159935  -0.865120  -0.000000
   69  C  5  Z   -0.000000  -0.000000   0.000000  -0.000000   0.691389
   70  C  5 XX   -0.008757   0.005029  -0.007271   0.008433  -0.000000
   71  C  5 YY    0.009412  -0.004659   0.007912   0.015480  -0.000000
   72  C  5 ZZ   -0.002390   0.001497   0.002593  -0.010547  -0.000000
   73  C  5 XY   -0.002123   0.008766   0.004529   0.007046  -0.000000
   74  C  5 XZ   -0.000000  -0.000000   0.000000  -0.000000  -0.014248
   75  C  5 YZ   -0.000000  -0.000000   0.000000  -0.000000   0.008226
   76  C  6  S    0.019083   0.038850  -0.067290  -0.042641  -0.000000
   77  C  6  S   -0.007014  -0.043907   0.076049   0.144347  -0.000000
   78  C  6  X    0.080110   0.021761  -0.089198  -0.051992  -0.000000
   79  C  6  Y    0.062815   0.064071  -0.021761  -0.030017  -0.000000
   80  C  6  Z   -0.000000  -0.000000   0.000000  -0.000000  -0.235573
   81  C  6  S   -0.579955  -0.773614   1.339938  -0.737154  -0.000000
   82  C  6  X    0.440989   0.159935  -0.700358  -1.498431  -0.000000
   83  C  6  Y   -0.067535   0.515681  -0.159935  -0.865120  -0.000000
   84  C  6  Z   -0.000000  -0.000000   0.000000  -0.000000  -0.691389
   85  C  6 XX    0.008757   0.005029   0.007271  -0.008433  -0.000000
   86  C  6 YY   -0.009412  -0.004659  -0.007912  -0.015480  -0.000000
   87  C  6 ZZ    0.002390   0.001497  -0.002593   0.010547  -0.000000
   88  C  6 XY   -0.002123  -0.008766   0.004529   0.007046  -0.000000
   89  C  6 XZ   -0.000000  -0.000000   0.000000  -0.000000   0.014248
   90  C  6 YZ   -0.000000  -0.000000   0.000000  -0.000000   0.008226
   91  H  7  S    0.005499   0.016294   0.000000   0.021828  -0.000000
   92  H  7  S    1.360263  -1.461282   0.000000   1.442626  -0.000000
   93  H  8  S    0.002749  -0.008147  -0.014111  -0.021828  -0.000000
   94  H  8  S    0.680131   0.730641   1.265508  -1.442626  -0.000000
   95  H  9  S   -0.002749  -0.008147   0.014111   0.021828  -0.000000
   96  H  9  S   -0.680131   0.730641  -1.265508   1.442626  -0.000000
   97  H 10  S   -0.005499   0.016294   0.000000  -0.021828  -0.000000
   98  H 10  S   -1.360263  -1.461282   0.000000  -1.442626  -0.000000
   99  H 11  S   -0.002749  -0.008147  -0.014111   0.021828  -0.000000
  100  H 11  S   -0.680131   0.730641   1.265508   1.442626  -0.000000
  101  H 12  S    0.002749  -0.008147   0.014111  -0.021828  -0.000000
  102  H 12  S    0.680131   0.730641  -1.265508  -1.442626  -0.000000

                     31         32         33         34         35
                    0.4752     0.4752     0.5013     0.5013     0.6573
                     E2G        E2G        E1U        E1U        B1U 
    1  C  1  S   -0.072319   0.000000  -0.000000  -0.046909   0.000000
    2  C  1  S    0.049284   0.000000  -0.000000   0.019389   0.000000
    3  C  1  X   -0.000000  -0.017437   0.223007  -0.000000  -0.326081
    4  C  1  Y    0.189443   0.000000  -0.000000   0.051341   0.000000
    5  C  1  Z   -0.000000   0.000000  -0.000000  -0.000000   0.000000
    6  C  1  S    2.258210   0.000000  -0.000000   2.154558   0.000000
    7  C  1  X   -0.000000   0.975253   2.224754  -0.000000   0.506180
    8  C  1  Y    1.738409   0.000000  -0.000000   0.261083   0.000000
    9  C  1  Z   -0.000000   0.000000  -0.000000  -0.000000   0.000000
   10  C  1 XX    0.011367   0.000000  -0.000000  -0.028571   0.000000
   11  C  1 YY    0.003867   0.000000  -0.000000   0.035341   0.000000
   12  C  1 ZZ   -0.002544   0.000000  -0.000000  -0.000389   0.000000
   13  C  1 XY   -0.000000  -0.030504  -0.020645  -0.000000  -0.046701
   14  C  1 XZ   -0.000000   0.000000  -0.000000  -0.000000   0.000000
   15  C  1 YZ   -0.000000   0.000000  -0.000000  -0.000000   0.000000
   16  C  2  S    0.036159   0.062630   0.040625  -0.023455   0.000000
   17  C  2  S   -0.024642  -0.042681  -0.016792   0.009695   0.000000
   18  C  2  X    0.074481   0.146442   0.094258   0.074333   0.163041
   19  C  2  Y   -0.060439  -0.074481   0.074333   0.180090   0.282395
   20  C  2  Z   -0.000000   0.000000  -0.000000  -0.000000   0.000000
   21  C  2  S   -1.129105  -1.955667  -1.865902   1.077279   0.000000
   22  C  2  X    1.175050   1.059993   0.752001   0.850294  -0.253090
   23  C  2  Y    0.296837  -1.175050   0.850294   1.733836  -0.438365
   24  C  2  Z   -0.000000   0.000000  -0.000000  -0.000000   0.000000
   25  C  2 XX    0.016942  -0.016411  -0.009027   0.023091  -0.035026
   26  C  2 YY   -0.024559   0.003219   0.003164  -0.019706   0.035026
   27  C  2 ZZ    0.001272   0.002204   0.000337  -0.000195   0.000000
   28  C  2 XY    0.011333  -0.010874   0.032836  -0.007039  -0.023351
   29  C  2 XZ   -0.000000   0.000000  -0.000000  -0.000000   0.000000
   30  C  2 YZ   -0.000000   0.000000  -0.000000  -0.000000   0.000000
   31  C  3  S    0.036159  -0.062630   0.040625   0.023455   0.000000
   32  C  3  S   -0.024642   0.042681  -0.016792  -0.009695   0.000000
   33  C  3  X    0.074481  -0.146442   0.094258  -0.074333   0.163041
   34  C  3  Y    0.060439  -0.074481  -0.074333   0.180090  -0.282395
   35  C  3  Z   -0.000000   0.000000  -0.000000  -0.000000   0.000000
   36  C  3  S   -1.129105   1.955667  -1.865902  -1.077279   0.000000
   37  C  3  X    1.175050  -1.059993   0.752001  -0.850294  -0.253090
   38  C  3  Y   -0.296837  -1.175050  -0.850294   1.733836   0.438365
   39  C  3  Z   -0.000000   0.000000  -0.000000  -0.000000   0.000000
   40  C  3 XX    0.016942   0.016411  -0.009027  -0.023091  -0.035026
   41  C  3 YY   -0.024559  -0.003219   0.003164   0.019706   0.035026
   42  C  3 ZZ    0.001272  -0.002204   0.000337   0.000195   0.000000
   43  C  3 XY   -0.011333  -0.010874  -0.032836  -0.007039   0.023351
   44  C  3 XZ   -0.000000   0.000000  -0.000000  -0.000000   0.000000
   45  C  3 YZ   -0.000000   0.000000  -0.000000  -0.000000   0.000000
   46  C  4  S   -0.072319   0.000000  -0.000000   0.046909   0.000000
   47  C  4  S    0.049284   0.000000  -0.000000  -0.019389   0.000000
   48  C  4  X   -0.000000   0.017437   0.223007  -0.000000  -0.326081
   49  C  4  Y   -0.189443   0.000000  -0.000000   0.051341   0.000000
   50  C  4  Z   -0.000000   0.000000  -0.000000  -0.000000   0.000000
   51  C  4  S    2.258210   0.000000  -0.000000  -2.154558   0.000000
   52  C  4  X   -0.000000  -0.975253   2.224754  -0.000000   0.506180
   53  C  4  Y   -1.738409   0.000000  -0.000000   0.261083   0.000000
   54  C  4  Z   -0.000000   0.000000  -0.000000  -0.000000   0.000000
   55  C  4 XX    0.011367   0.000000  -0.000000   0.028571   0.000000
   56  C  4 YY    0.003867   0.000000  -0.000000  -0.035341   0.000000
   57  C  4 ZZ   -0.002544   0.000000  -0.000000   0.000389   0.000000
   58  C  4 XY   -0.000000  -0.030504   0.020645  -0.000000   0.046701
   59  C  4 XZ   -0.000000   0.000000  -0.000000  -0.000000   0.000000
   60  C  4 YZ   -0.000000   0.000000  -0.000000  -0.000000   0.000000
   61  C  5  S    0.036159   0.062630  -0.040625   0.023455   0.000000
   62  C  5  S   -0.024642  -0.042681   0.016792  -0.009695   0.000000
   63  C  5  X   -0.074481  -0.146442   0.094258   0.074333   0.163041
   64  C  5  Y    0.060439   0.074481   0.074333   0.180090   0.282395
   65  C  5  Z   -0.000000   0.000000  -0.000000  -0.000000   0.000000
   66  C  5  S   -1.129105  -1.955667   1.865902  -1.077279   0.000000
   67  C  5  X   -1.175050  -1.059993   0.752001   0.850294  -0.253090
   68  C  5  Y   -0.296837   1.175050   0.850294   1.733836  -0.438365
   69  C  5  Z   -0.000000   0.000000  -0.000000  -0.000000   0.000000
   70  C  5 XX    0.016942  -0.016411   0.009027  -0.023091   0.035026
   71  C  5 YY   -0.024559   0.003219  -0.003164   0.019706  -0.035026
   72  C  5 ZZ    0.001272   0.002204  -0.000337   0.000195   0.000000
   73  C  5 XY    0.011333  -0.010874  -0.032836   0.007039   0.023351
   74  C  5 XZ   -0.000000   0.000000  -0.000000  -0.000000   0.000000
   75  C  5 YZ   -0.000000   0.000000  -0.000000  -0.000000   0.000000
   76  C  6  S    0.036159  -0.062630  -0.040625  -0.023455   0.000000
   77  C  6  S   -0.024642   0.042681   0.016792   0.009695   0.000000
   78  C  6  X   -0.074481   0.146442   0.094258  -0.074333   0.163041
   79  C  6  Y   -0.060439   0.074481  -0.074333   0.180090  -0.282395
   80  C  6  Z   -0.000000   0.000000  -0.000000  -0.000000   0.000000
   81  C  6  S   -1.129105   1.955667   1.865902   1.077279   0.000000
   82  C  6  X   -1.175050   1.059993   0.752001  -0.850294  -0.253090
   83  C  6  Y    0.296837   1.175050  -0.850294   1.733836   0.438365
   84  C  6  Z   -0.000000   0.000000  -0.000000  -0.000000   0.000000
   85  C  6 XX    0.016942   0.016411   0.009027   0.023091   0.035026
   86  C  6 YY   -0.024559  -0.003219  -0.003164  -0.019706  -0.035026
   87  C  6 ZZ    0.001272  -0.002204  -0.000337  -0.000195   0.000000
   88  C  6 XY   -0.011333  -0.010874   0.032836   0.007039  -0.023351
   89  C  6 XZ   -0.000000   0.000000  -0.000000  -0.000000   0.000000
   90  C  6 YZ   -0.000000   0.000000  -0.000000  -0.000000   0.000000
   91  H  7  S    0.013167   0.000000  -0.000000   0.138631   0.000000
   92  H  7  S    1.023876   0.000000  -0.000000  -0.081352   0.000000
   93  H  8  S   -0.006584  -0.011403  -0.120058   0.069316   0.000000
   94  H  8  S   -0.511938  -0.886703   0.070453  -0.040676   0.000000
   95  H  9  S   -0.006584   0.011403  -0.120058  -0.069316   0.000000
   96  H  9  S   -0.511938   0.886703   0.070453   0.040676   0.000000
   97  H 10  S    0.013167   0.000000  -0.000000  -0.138631   0.000000
   98  H 10  S    1.023876   0.000000  -0.000000   0.081352   0.000000
   99  H 11  S   -0.006584  -0.011403   0.120058  -0.069316   0.000000
  100  H 11  S   -0.511938  -0.886703  -0.070453   0.040676   0.000000
  101  H 12  S   -0.006584   0.011403   0.120058   0.069316   0.000000
  102  H 12  S   -0.511938   0.886703  -0.070453  -0.040676   0.000000

                     36         37         38         39         40
                    0.7405     0.7554     0.7848     0.7876     0.7932
                     A1G        A2U        A2G        A1G        B2U 
    1  C  1  S    0.003134   0.000000   0.000000  -0.014620  -0.115815
    2  C  1  S    0.420298   0.000000   0.000000  -0.350714   0.063541
    3  C  1  X    0.000000   0.000000   0.211831  -0.000000   0.000000
    4  C  1  Y    0.211242   0.000000   0.000000   0.059690   0.103601
    5  C  1  Z    0.000000   0.428929   0.000000  -0.000000   0.000000
    6  C  1  S   -0.400843   0.000000   0.000000   0.513738   4.620855
    7  C  1  X    0.000000   0.000000   4.123614  -0.000000   0.000000
    8  C  1  Y   -0.145502   0.000000   0.000000  -0.209143   3.442162
    9  C  1  Z    0.000000  -0.301254   0.000000  -0.000000   0.000000
   10  C  1 XX    0.094402   0.000000   0.000000  -0.011507   0.009443
   11  C  1 YY   -0.011603   0.000000   0.000000  -0.103671  -0.002241
   12  C  1 ZZ    0.002486   0.000000   0.000000   0.026269   0.024224
   13  C  1 XY    0.000000   0.000000  -0.007732  -0.000000   0.000000
   14  C  1 XZ    0.000000   0.000000   0.000000  -0.000000   0.000000
   15  C  1 YZ    0.000000   0.021896   0.000000  -0.000000   0.000000
   16  C  2  S    0.003134   0.000000   0.000000  -0.014620   0.115815
   17  C  2  S    0.420298   0.000000   0.000000  -0.350714  -0.063541
   18  C  2  X   -0.182941   0.000000   0.105915  -0.051693   0.089721
   19  C  2  Y    0.105621   0.000000   0.183451   0.029845  -0.051800
   20  C  2  Z    0.000000   0.428929   0.000000  -0.000000   0.000000
   21  C  2  S   -0.400843   0.000000   0.000000   0.513738  -4.620855
   22  C  2  X    0.126008   0.000000   2.061807   0.181123   2.981000
   23  C  2  Y   -0.072751   0.000000   3.571154  -0.104571  -1.721081
   24  C  2  Z    0.000000  -0.301254   0.000000  -0.000000   0.000000
   25  C  2 XX    0.014898   0.000000   0.005799  -0.080630  -0.000680
   26  C  2 YY    0.067901   0.000000  -0.005799  -0.034548  -0.006522
   27  C  2 ZZ    0.002486   0.000000   0.000000   0.026269  -0.024224
   28  C  2 XY    0.053002   0.000000   0.003866   0.046082  -0.005842
   29  C  2 XZ    0.000000  -0.018963   0.000000  -0.000000   0.000000
   30  C  2 YZ    0.000000   0.010948   0.000000  -0.000000   0.000000
   31  C  3  S    0.003134   0.000000   0.000000  -0.014620  -0.115815
   32  C  3  S    0.420298   0.000000   0.000000  -0.350714   0.063541
   33  C  3  X   -0.182941   0.000000  -0.105915  -0.051693  -0.089721
   34  C  3  Y   -0.105621   0.000000   0.183451  -0.029845  -0.051800
   35  C  3  Z    0.000000   0.428929   0.000000  -0.000000   0.000000
   36  C  3  S   -0.400843   0.000000   0.000000   0.513738   4.620855
   37  C  3  X    0.126008   0.000000  -2.061807   0.181123  -2.981000
   38  C  3  Y    0.072751   0.000000   3.571154   0.104571  -1.721081
   39  C  3  Z    0.000000  -0.301254   0.000000  -0.000000   0.000000
   40  C  3 XX    0.014898   0.000000  -0.005799  -0.080630   0.000680
   41  C  3 YY    0.067901   0.000000   0.005799  -0.034548   0.006522
   42  C  3 ZZ    0.002486   0.000000   0.000000   0.026269   0.024224
   43  C  3 XY   -0.053002   0.000000   0.003866  -0.046082  -0.005842
   44  C  3 XZ    0.000000  -0.018963   0.000000  -0.000000   0.000000
   45  C  3 YZ    0.000000  -0.010948   0.000000  -0.000000   0.000000
   46  C  4  S    0.003134   0.000000   0.000000  -0.014620   0.115815
   47  C  4  S    0.420298   0.000000   0.000000  -0.350714  -0.063541
   48  C  4  X    0.000000   0.000000  -0.211831  -0.000000   0.000000
   49  C  4  Y   -0.211242   0.000000   0.000000  -0.059690   0.103601
   50  C  4  Z    0.000000   0.428929   0.000000  -0.000000   0.000000
   51  C  4  S   -0.400843   0.000000   0.000000   0.513738  -4.620855
   52  C  4  X    0.000000   0.000000  -4.123614  -0.000000   0.000000
   53  C  4  Y    0.145502   0.000000   0.000000   0.209143   3.442162
   54  C  4  Z    0.000000  -0.301254   0.000000  -0.000000   0.000000
   55  C  4 XX    0.094402   0.000000   0.000000  -0.011507  -0.009443
   56  C  4 YY   -0.011603   0.000000   0.000000  -0.103671   0.002241
   57  C  4 ZZ    0.002486   0.000000   0.000000   0.026269  -0.024224
   58  C  4 XY    0.000000   0.000000  -0.007732  -0.000000   0.000000
   59  C  4 XZ    0.000000   0.000000   0.000000  -0.000000   0.000000
   60  C  4 YZ    0.000000  -0.021896   0.000000  -0.000000   0.000000
   61  C  5  S    0.003134   0.000000   0.000000  -0.014620  -0.115815
   62  C  5  S    0.420298   0.000000   0.000000  -0.350714   0.063541
   63  C  5  X    0.182941   0.000000  -0.105915   0.051693   0.089721
   64  C  5  Y   -0.105621   0.000000  -0.183451  -0.029845  -0.051800
   65  C  5  Z    0.000000   0.428929   0.000000  -0.000000   0.000000
   66  C  5  S   -0.400843   0.000000   0.000000   0.513738   4.620855
   67  C  5  X   -0.126008   0.000000  -2.061807  -0.181123   2.981000
   68  C  5  Y    0.072751   0.000000  -3.571154   0.104571  -1.721081
   69  C  5  Z    0.000000  -0.301254   0.000000  -0.000000   0.000000
   70  C  5 XX    0.014898   0.000000   0.005799  -0.080630   0.000680
   71  C  5 YY    0.067901   0.000000  -0.005799  -0.034548   0.006522
   72  C  5 ZZ    0.002486   0.000000   0.000000   0.026269   0.024224
   73  C  5 XY    0.053002   0.000000   0.003866   0.046082   0.005842
   74  C  5 XZ    0.000000   0.018963   0.000000  -0.000000   0.000000
   75  C  5 YZ    0.000000  -0.010948   0.000000  -0.000000   0.000000
   76  C  6  S    0.003134   0.000000   0.000000  -0.014620   0.115815
   77  C  6  S    0.420298   0.000000   0.000000  -0.350714  -0.063541
   78  C  6  X    0.182941   0.000000   0.105915   0.051693  -0.089721
   79  C  6  Y    0.105621   0.000000  -0.183451   0.029845  -0.051800
   80  C  6  Z    0.000000   0.428929   0.000000  -0.000000   0.000000
   81  C  6  S   -0.400843   0.000000   0.000000   0.513738  -4.620855
   82  C  6  X   -0.126008   0.000000   2.061807  -0.181123  -2.981000
   83  C  6  Y   -0.072751   0.000000  -3.571154  -0.104571  -1.721081
   84  C  6  Z    0.000000  -0.301254   0.000000  -0.000000   0.000000
   85  C  6 XX    0.014898   0.000000  -0.005799  -0.080630  -0.000680
   86  C  6 YY    0.067901   0.000000   0.005799  -0.034548  -0.006522
   87  C  6 ZZ    0.002486   0.000000   0.000000   0.026269  -0.024224
   88  C  6 XY   -0.053002   0.000000   0.003866  -0.046082   0.005842
   89  C  6 XZ    0.000000   0.018963   0.000000  -0.000000   0.000000
[...]
                   Z -0.00000000  0.05020718  0.07383488 -0.05810314  0.00000000
  3   C            X -0.09801962 -0.00000000 -0.00000000 -0.00000000 -0.05376975
                   Y -0.05659165 -0.00000000 -0.00000000  0.00000000  0.04127997
                   Z  0.00000000 -0.08904647  0.00656326  0.05810314 -0.00000000
  4   C            X  0.00000000  0.00000000  0.00000000 -0.00000000 -0.01531343
                   Y  0.11318331  0.00000000  0.00000000 -0.00000000 -0.08906346
                   Z  0.00000000  0.03883929 -0.08039813 -0.05810314  0.00000000
  5   C            X  0.09801962  0.00000000  0.00000000  0.00000000  0.07833913
                   Y -0.05659165 -0.00000000 -0.00000000 -0.00000000  0.00941241
                   Z -0.00000000  0.05020718  0.07383488  0.05810314 -0.00000000
  6   C            X -0.09801962 -0.00000000 -0.00000000 -0.00000000 -0.05376975
                   Y -0.05659165 -0.00000000 -0.00000000  0.00000000  0.04127997
                   Z  0.00000000 -0.08904647  0.00656326 -0.05810314  0.00000000
  7   H            X -0.00000000  0.00000000  0.00000000 -0.00000000 -0.09673672
                   Y  0.11331662  0.00000000  0.00000000 -0.00000000 -0.09644202
                   Z -0.00000000 -0.21123616  0.43726323 -0.35380145  0.00000000
  8   H            X  0.09813507  0.00000000  0.00000000  0.00000000  0.20867452
                   Y -0.05665831 -0.00000000 -0.00000000  0.00000000  0.22469853
                   Z  0.00000000 -0.27306298 -0.40156749  0.35380145 -0.00000000
  9   H            X -0.09813507 -0.00000000 -0.00000000 -0.00000000 -0.22214697
                   Y -0.05665831 -0.00000000 -0.00000000  0.00000000  0.32862215
                   Z -0.00000000  0.48429914 -0.03569574 -0.35380145  0.00000000
 10   H            X -0.00000000  0.00000000  0.00000000 -0.00000000 -0.09673672
                   Y  0.11331662  0.00000000  0.00000000 -0.00000000 -0.09644202
                   Z -0.00000000 -0.21123616  0.43726323  0.35380145 -0.00000000
 11   H            X  0.09813507  0.00000000  0.00000000  0.00000000  0.20867452
                   Y -0.05665831 -0.00000000 -0.00000000  0.00000000  0.22469853
                   Z  0.00000000 -0.27306298 -0.40156749 -0.35380145  0.00000000
 12   H            X -0.09813507 -0.00000000 -0.00000000 -0.00000000 -0.22214697
                   Y -0.05665831 -0.00000000 -0.00000000  0.00000000  0.32862215
                   Z -0.00000000  0.48429914 -0.03569574  0.35380145 -0.00000000

 TRANS. SAYVETZ    X -0.00000000  0.00000000  0.00000000 -0.00000000 -0.00000036
                   Y -0.00000000 -0.00000000 -0.00000000  0.00000000  0.00000150
                   Z  0.00000000  0.00000000 -0.00000000  0.00000000 -0.00000000
               TOTAL  0.00000000  0.00000000  0.00000000  0.00000000  0.00000154

   ROT. SAYVETZ    X -0.00000000  0.00000000 -0.00000000  0.00000000  0.00000000
                   Y -0.00000000 -0.00000000 -0.00000000  0.00000000  0.00000000
                   Z  0.00000000  0.00000000 -0.00000000  0.00000000 -0.00000000
               TOTAL  0.00000000  0.00000000  0.00000000  0.00000000  0.00000000

                         21          22          23          24          25
       FREQUENCY:      1142.11     1197.18     1294.24     1294.24     1351.54  
        SYMMETRY:         E1U         B1U         E2G         E2G         B1U 
    REDUCED MASS:      1.72997     2.29750     1.15033     1.15033     1.56173
    IR INTENSITY:      0.06845     0.00000     0.00000     0.00000     0.00000

  1   C            X  0.06348274  0.09225611 -0.05810144  0.01948401 -0.07333280
                   Y -0.02148406  0.00000000  0.00037329  0.00111314  0.00000000
                   Z  0.00000000  0.00000000  0.00000000 -0.00000000  0.00000000
  2   C            X -0.03499313 -0.04612806  0.02228897  0.02104963  0.03666640
                   Y  0.07216850 -0.07989614  0.04016036  0.03469933  0.06350806
                   Z -0.00000000 -0.00000000 -0.00000000  0.00000000 -0.00000000
  3   C            X -0.06686069 -0.04612806 -0.00509204  0.03023171  0.03666640
                   Y -0.05994038  0.07989614  0.01112098 -0.05189626 -0.06350806
                   Z  0.00000000  0.00000000  0.00000000  0.00000000  0.00000000
  4   C            X  0.06348274  0.09225611  0.05810144 -0.01948401 -0.07333280
                   Y -0.02148406  0.00000000 -0.00037329 -0.00111314  0.00000000
                   Z  0.00000000  0.00000000  0.00000000 -0.00000000  0.00000000
  5   C            X -0.03499313 -0.04612806 -0.02228897 -0.02104963  0.03666640
                   Y  0.07216850 -0.07989614 -0.04016036 -0.03469933  0.06350806
                   Z -0.00000000 -0.00000000 -0.00000000  0.00000000 -0.00000000
  6   C            X -0.06686069 -0.04612806  0.00509204 -0.03023171  0.03666640
                   Y -0.05994038  0.07989614 -0.01112098  0.05189626 -0.06350806
                   Z -0.00000000  0.00000000  0.00000000  0.00000000  0.00000000
  7   H            X  0.40102779  0.25304415 -0.50705057  0.17003674  0.31834146
                   Y -0.02326393  0.00000000  0.00033509  0.00099924  0.00000000
                   Z -0.00000000 -0.00000000 -0.00000000  0.00000000 -0.00000000
  8   H            X  0.07988724 -0.12652208  0.19978638  0.17773415 -0.15917073
                   Y  0.28214730 -0.21914266  0.34743580  0.30626495 -0.27569179
                   Z  0.00000000  0.00000000  0.00000000 -0.00000000  0.00000000
  9   H            X -0.02403637 -0.12652208 -0.05224005  0.26224989 -0.15917073
                   Y -0.14867419  0.21914266  0.09254824 -0.45381128  0.27569179
                   Z -0.00000000 -0.00000000 -0.00000000 -0.00000000 -0.00000000
 10   H            X  0.40102779  0.25304415  0.50705057 -0.17003674  0.31834146
                   Y -0.02326393  0.00000000 -0.00033509 -0.00099924 -0.00000000
                   Z -0.00000000 -0.00000000 -0.00000000  0.00000000 -0.00000000
 11   H            X  0.07988724 -0.12652208 -0.19978638 -0.17773415 -0.15917073
                   Y  0.28214730 -0.21914266 -0.34743580 -0.30626495 -0.27569179
                   Z  0.00000000  0.00000000  0.00000000 -0.00000000  0.00000000
 12   H            X -0.02403637 -0.12652208  0.05224005 -0.26224989 -0.15917073
                   Y -0.14867419  0.21914266 -0.09254824  0.45381128  0.27569179
                   Z  0.00000000 -0.00000000  0.00000000 -0.00000000 -0.00000000

 TRANS. SAYVETZ    X  0.00000150  0.00000000  0.00000000  0.00000000  0.00000000
                   Y  0.00000036 -0.00000000 -0.00000000  0.00000000 -0.00000000
                   Z  0.00000000 -0.00000000 -0.00000000 -0.00000000  0.00000000
               TOTAL  0.00000154  0.00000000  0.00000000  0.00000000  0.00000000

   ROT. SAYVETZ    X -0.00000000  0.00000000  0.00000000 -0.00000000  0.00000000
                   Y -0.00000000  0.00000000  0.00000000 -0.00000000  0.00000000
                   Z  0.00000000  0.00000000 -0.00000000  0.00000000 -0.00000000
               TOTAL  0.00000000  0.00000000  0.00000000  0.00000000  0.00000000

                         26          27          28          29          30
       FREQUENCY:      1508.01     1652.10     1652.10     1797.39     1797.39  
        SYMMETRY:         A2G         E1U         E1U         E2G         E2G 
    REDUCED MASS:      1.24705     1.97138     1.97138     5.00539     5.00539
    IR INTENSITY:      0.00000     0.27525     0.27525     0.00000     0.00000

  1   C            X  0.05393167 -0.09615150  0.03796927 -0.13265584  0.04940467
                   Y -0.00000000  0.02361828  0.05980977 -0.02256555 -0.06059045
                   Z  0.00000000  0.00000000  0.00000000  0.00000000 -0.00000000
  2   C            X  0.02696583 -0.00584874 -0.07575461  0.09022848  0.00192990
                   Y  0.04670619 -0.09010559 -0.03049299  0.07390012  0.10301781
                   Z  0.00000000  0.00000000 -0.00000000  0.00000000 -0.00000000
  3   C            X -0.02696583  0.04748764  0.05931182 -0.06698512  0.06048056
                   Y  0.04670619  0.04496083 -0.08382938 -0.01148966 -0.12626118
                   Z  0.00000000 -0.00000000  0.00000000 -0.00000000  0.00000000
  4   C            X -0.05393167 -0.09615150  0.03796927  0.13265584 -0.04940467
                   Y -0.00000000  0.02361828  0.05980977  0.02256555  0.06059045
                   Z -0.00000000 -0.00000000  0.00000000 -0.00000000  0.00000000
  5   C            X -0.02696583 -0.00584874 -0.07575461 -0.09022848 -0.00192990
                   Y -0.04670619 -0.09010559 -0.03049299 -0.07390012 -0.10301781
                   Z  0.00000000  0.00000000  0.00000000 -0.00000000 -0.00000000
  6   C            X  0.02696583  0.04748764  0.05931182  0.06698512 -0.06048056
                   Y -0.04670619  0.04496083 -0.08382938  0.01148966  0.12626118
                   Z -0.00000000 -0.00000000  0.00000000 -0.00000000 -0.00000000
  7   H            X -0.36158004  0.35748276 -0.14116638  0.17926726 -0.06676404
                   Y -0.00000000  0.02970881  0.07523313 -0.02653832 -0.07125770
                   Z -0.00000000 -0.00000000  0.00000000  0.00000000 -0.00000000
  8   H            X -0.18079002  0.19405808  0.06464447 -0.03177465 -0.11169322
                   Y -0.31313750  0.23551967  0.23865781 -0.15191894 -0.07623491
                   Z -0.00000000 -0.00000000 -0.00000000 -0.00000000 -0.00000000
  9   H            X  0.18079002  0.09753300 -0.17979088 -0.04902757 -0.10526776
                   Y -0.31313750 -0.00891568  0.33518290 -0.06504204  0.15703713
                   Z  0.00000000  0.00000000  0.00000000  0.00000000  0.00000000
 10   H            X  0.36158004  0.35748276 -0.14116638 -0.17926726  0.06676404
                   Y -0.00000000  0.02970881  0.07523313  0.02653832  0.07125770
                   Z  0.00000000  0.00000000  0.00000000  0.00000000  0.00000000
 11   H            X  0.18079002  0.19405808  0.06464447  0.03177465  0.11169322
                   Y  0.31313750  0.23551967  0.23865781  0.15191894  0.07623491
                   Z  0.00000000  0.00000000  0.00000000 -0.00000000 -0.00000000
 12   H            X -0.18079002  0.09753300 -0.17979088  0.04902757  0.10526776
                   Y  0.31313750 -0.00891568  0.33518290  0.06504204 -0.15703713
                   Z -0.00000000  0.00000000 -0.00000000 -0.00000000  0.00000000

 TRANS. SAYVETZ    X -0.00000000  0.00000333 -0.00000132 -0.00000000 -0.00000000
                   Y  0.00000000  0.00000132  0.00000333 -0.00000000 -0.00000000
                   Z  0.00000000 -0.00000000  0.00000000  0.00000000  0.00000000
               TOTAL  0.00000000  0.00000358  0.00000358  0.00000000  0.00000000

   ROT. SAYVETZ    X -0.00000000  0.00000000  0.00000000 -0.00000000  0.00000000
                   Y  0.00000000  0.00000000  0.00000000 -0.00000000 -0.00000000
                   Z  0.00010494 -0.00000000 -0.00000000 -0.00000000  0.00000000
               TOTAL  0.00010494  0.00000000  0.00000000  0.00000000  0.00000000

                         31          32          33          34          35
       FREQUENCY:      3348.61     3359.57     3359.57     3378.01     3378.01  
        SYMMETRY:         B2U         E2G         E2G         E1U         E1U 
    REDUCED MASS:      1.08500     1.08965     1.08965     1.09640     1.09640
    IR INTENSITY:      0.00000     0.00000     0.00000     1.48503     1.48503

  1   C            X -0.00000000  0.00221468 -0.00154086  0.00299236 -0.00216337
                   Y -0.03283943  0.02720967  0.03910843 -0.02891738 -0.03999833
                   Z  0.00000000 -0.00000000  0.00000000 -0.00000000 -0.00000000
  2   C            X -0.02843978 -0.01877008  0.03676793 -0.01579229  0.03976270
                   Y  0.01641971  0.00801740 -0.02255304  0.01300870 -0.02121367
                   Z  0.00000000  0.00000000 -0.00000000  0.00000000  0.00000000
  3   C            X  0.02843978  0.04099991 -0.00481700 -0.04270901  0.00253168
                   Y  0.01641971  0.02393353  0.00032320 -0.02422233  0.00570305
                   Z  0.00000000 -0.00000000  0.00000000  0.00000000  0.00000000
  4   C            X  0.00000000 -0.00221468  0.00154086  0.00299236 -0.00216337
                   Y -0.03283943 -0.02720967 -0.03910843 -0.02891738 -0.03999833
                   Z  0.00000000  0.00000000  0.00000000  0.00000000  0.00000000
  5   C            X -0.02843978  0.01877008 -0.03676793 -0.01579229  0.03976270
                   Y  0.01641971 -0.00801740  0.02255304  0.01300870 -0.02121367
                   Z  0.00000000 -0.00000000 -0.00000000  0.00000000  0.00000000
  6   C            X  0.02843978 -0.04099991  0.00481700 -0.04270901  0.00253168
                   Y  0.01641971 -0.02393353 -0.00032320 -0.02422233  0.00570305
                   Z  0.00000000 -0.00000000  0.00000000  0.00000000  0.00000000
  7   H            X  0.00000000 -0.00289073  0.00201122 -0.00439010  0.00317389
                   Y  0.39055341 -0.31469580 -0.45231205  0.32172957  0.44501421
                   Z -0.00000000  0.00000000  0.00000000  0.00000000  0.00000000
  8   H            X  0.33822918  0.20456033 -0.43112979  0.19197581 -0.43510148
                   Y -0.19527671 -0.11442277  0.25064245 -0.11654580  0.24864830
                   Z -0.00000000 -0.00000000  0.00000000  0.00000000 -0.00000000
  9   H            X -0.33822918 -0.47535311  0.04191951  0.47335046 -0.04590593
                   Y -0.19527671 -0.27478751  0.02015033  0.27264975 -0.03272634
                   Z -0.00000000  0.00000000 -0.00000000 -0.00000000  0.00000000
 10   H            X  0.00000000  0.00289073 -0.00201122 -0.00439010  0.00317389
                   Y  0.39055341  0.31469580  0.45231205  0.32172957  0.44501421
                   Z  0.00000000  0.00000000 -0.00000000 -0.00000000  0.00000000
 11   H            X  0.33822918 -0.20456033  0.43112979  0.19197581 -0.43510148
                   Y -0.19527671  0.11442277 -0.25064245 -0.11654580  0.24864830
                   Z -0.00000000 -0.00000000 -0.00000000 -0.00000000 -0.00000000
 12   H            X -0.33822918  0.47535311 -0.04191951  0.47335046 -0.04590593
                   Y -0.19527671  0.27478751 -0.02015033  0.27264975 -0.03272634
                   Z -0.00000000  0.00000000 -0.00000000  0.00000000 -0.00000000

 TRANS. SAYVETZ    X -0.00000000 -0.00000000  0.00000000  0.00000127 -0.00000092
                   Y -0.00000000 -0.00000000  0.00000000  0.00000092  0.00000127
                   Z  0.00000000 -0.00000000  0.00000000  0.00000000  0.00000000
               TOTAL  0.00000000  0.00000000  0.00000000  0.00000157  0.00000157

   ROT. SAYVETZ    X  0.00000000  0.00000000 -0.00000000  0.00000000  0.00000000
                   Y  0.00000000 -0.00000000 -0.00000000 -0.00000000  0.00000000
                   Z -0.00000000  0.00000000 -0.00000000 -0.00000000 -0.00000000
               TOTAL  0.00000000  0.00000000  0.00000000  0.00000000  0.00000000

                         36
       FREQUENCY:      3389.88  
        SYMMETRY:         A1G 
    REDUCED MASS:      1.09990
    IR INTENSITY:      0.00000

  1   C            X -0.00000000
                   Y -0.03562601
                   Z -0.00000000
  2   C            X  0.03085303
                   Y -0.01781300
                   Z  0.00000000
  3   C            X  0.03085303
                   Y  0.01781300
                   Z -0.00000000
  4   C            X  0.00000000
                   Y  0.03562601
                   Z -0.00000000
  5   C            X -0.03085303
                   Y  0.01781300
                   Z -0.00000000
  6   C            X -0.03085303
                   Y -0.01781300
                   Z -0.00000000
  7   H            X  0.00000000
                   Y  0.38763427
                   Z  0.00000000
  8   H            X -0.33570113
                   Y  0.19381714
                   Z -0.00000000
  9   H            X -0.33570113
                   Y -0.19381714
                   Z -0.00000000
 10   H            X -0.00000000
                   Y -0.38763427
                   Z  0.00000000
 11   H            X  0.33570113
                   Y -0.19381714
                   Z -0.00000000
 12   H            X  0.33570113
                   Y  0.19381714
                   Z  0.00000000

 TRANS. SAYVETZ    X -0.00000000
                   Y  0.00000000
                   Z -0.00000000
               TOTAL  0.00000000

   ROT. SAYVETZ    X -0.00000000
                   Y -0.00000000
                   Z -0.00000000
               TOTAL  0.00000000

 REFERENCE ON SAYVETZ CONDITIONS - A. SAYVETZ, J.CHEM.PHYS., 7, 383-389(1939).

 NOTE - THE MODES J,K ARE ORTHONORMALIZED ACCORDING TO
 SUM ON I   M(I) * (X(I,J)*X(I,K) + Y(I,J)*Y(I,K) + Z(I,J)*Z(I,K)) = DELTA(J,K)

     -------------------------------
     THERMOCHEMISTRY AT T=  298.15 K
     -------------------------------

 USING IDEAL GAS, RIGID ROTOR, HARMONIC NORMAL MODE APPROXIMATIONS.
 P=  1.01325E+05 PASCAL.
 ALL FREQUENCIES ARE SCALED BY   1.00000
 THE MOMENTS OF INERTIA ARE (IN AMU*BOHR**2)
    312.45547   312.45547   624.91095
 THE ROTATIONAL SYMMETRY NUMBER IS 12.0
 THE ROTATIONAL CONSTANTS ARE (IN GHZ)
      5.77070     5.77070     2.88535
 THE HARMONIC ZERO POINT ENERGY IS (SCALED BY   1.000)
        0.107673 HARTREE/MOLECULE    23631.539389 CM**-1/MOLECULE 
       67.566029 KCAL/MOL              282.696267 KJ/MOL

               Q               LN Q
 ELEC.     1.00000E+00       0.000000
 TRANS.    2.71011E+07      17.115087
 ROT.      7.36813E+03       8.904919
 VIB.      1.53926E+00       0.431302
 TOT.      3.07367E+11      26.451308

              E         H         G         CV        CP        S
           KJ/MOL    KJ/MOL    KJ/MOL   J/MOL-K   J/MOL-K   J/MOL-K
 ELEC.      0.000     0.000     0.000     0.000     0.000     0.000
 TRANS.     3.718     6.197   -42.427    12.472    20.786   163.088
 ROT.       3.718     3.718   -22.075    12.472    12.472    86.511
 VIB.     286.013   286.013   281.627    39.599    39.599    14.711
 TOTAL    293.450   295.929   217.125    64.542    72.857   264.310
 VIB. THERMAL CORRECTION E(T)-E(0) = H(T)-H(0) =  3317.002 J/MOL

              E         H         G         CV        CP        S
         KCAL/MOL  KCAL/MOL  KCAL/MOL CAL/MOL-K CAL/MOL-K CAL/MOL-K
 ELEC.      0.000     0.000     0.000     0.000     0.000     0.000
 TRANS.     0.889     1.481   -10.140     2.981     4.968    38.979
 ROT.       0.889     0.889    -5.276     2.981     2.981    20.677
 VIB.      68.359    68.359    67.310     9.464     9.464     3.516
 TOTAL     70.136    70.729    51.894    15.426    17.413    63.172
 VIB. THERMAL CORRECTION E(T)-E(0) = H(T)-H(0) =   792.782 CAL/MOL
 ......END OF NORMAL COORDINATE ANALYSIS......
 STEP CPU TIME =     0.01 TOTAL CPU TIME =       17.2 (    0.3 MIN)
 TOTAL WALL CLOCK TIME=       17.3 SECONDS, CPU UTILIZATION IS  99.13%
      580000  WORDS OF DYNAMIC MEMORY USED
 EXECUTION OF GAMESS TERMINATED NORMALLY Mon Oct  3 12:52:18 2011
 DDI: 263224 bytes (0.3 MB / 0 MWords) used by master data server.

 ----------------------------------------
 CPU timing information for all processes
 ========================================
 0: 16.677 + 0.484 = 17.161
 ----------------------------------------
 ddikick.x: exited gracefully.
unset echo
----- accounting info -----
Files used on the master node idhi were:
-rw-r--r-- 1 koushik koushik      665 2011-10-03 12:52 /home/koushik/Desktop/gamess/benzenenm.F05
-rw-r--r-- 1 koushik koushik 82085472 2011-10-03 12:52 /home/koushik/Desktop/gamess/benzenenm.F08
-rw-r--r-- 1 koushik koushik  2192240 2011-10-03 12:52 /home/koushik/Desktop/gamess/benzenenm.F10
-rw-r--r-- 1 koushik koushik  1513152 2011-10-03 12:52 /home/koushik/Desktop/gamess/benzenenm.F18
Mon Oct  3 12:52:21 IST 2011
0.0u 0.0s 0:20.41 0.6% 0+0k 0+24io 0pf+0w
