          ******************************************************
          *         GAMESS VERSION =  1 OCT 2010 (R1)          *
          *             FROM IOWA STATE UNIVERSITY             *
          * M.W.SCHMIDT, K.K.BALDRIDGE, J.A.BOATZ, S.T.ELBERT, *
          *   M.S.GORDON, J.H.JENSEN, S.KOSEKI, N.MATSUNAGA,   *
          *          K.A.NGUYEN, S.J.SU, T.L.WINDUS,           *
          *       TOGETHER WITH M.DUPUIS, J.A.MONTGOMERY       *
          *         J.COMPUT.CHEM.  14, 1347-1363(1993)        *
          **************** 32 BIT LINUX VERSION ****************

  SINCE 1993, STUDENTS AND POSTDOCS WORKING AT IOWA STATE UNIVERSITY
  AND ALSO IN THEIR VARIOUS JOBS AFTER LEAVING ISU HAVE MADE IMPORTANT
  CONTRIBUTIONS TO THE CODE:
     IVANA ADAMOVIC, CHRISTINE AIKENS, YURI ALEXEEV, POOJA ARORA,
     ANDREY ASADCHEV, ROB BELL, PRADIPTA BANDYOPADHYAY, JONATHAN BENTZ,
     BRETT BODE, GALINA CHABAN, WEI CHEN, CHEOL HO CHOI, PAUL DAY, TIM DUDLEY,
     DMITRI FEDOROV, GRAHAM FLETCHER, MARK FREITAG, KURT GLAESEMANN, DAN KEMP,
     GRANT MERRILL, NORIYUKI MINEZAWA, JONATHAN MULLIN, TAKESHI NAGATA,
     SEAN NEDD, HEATHER NETZLOFF, BOSILJKA NJEGIC, RYAN OLSON, MIKE PAK,
     JIM SHOEMAKER, LYUDMILA SLIPCHENKO, SAROM SOK, JIE SONG,
     TETSUYA TAKETSUGU, SIMON WEBB, SOOHAENG YOO, FEDERICO ZAHARIEV

  ADDITIONAL CODE HAS BEEN PROVIDED BY COLLABORATORS IN OTHER GROUPS:
     IOWA STATE UNIVERSITY:
          JOE IVANIC, LAIMUTIS BYTAUTAS, KLAUS RUEDENBERG
     UNIVERSITY OF TOKYO: KIMIHIKO HIRAO, TAKAHITO NAKAJIMA,
          TAKAO TSUNEDA, MUNEAKI KAMIYA, SUSUMU YANAGISAWA,
          KIYOSHI YAGI, MAHITO CHIBA, SEIKEN TOKURA, NAOAKI KAWAKAMI
     UNIVERSITY OF AARHUS: FRANK JENSEN
     UNIVERSITY OF IOWA: VISVALDAS KAIRYS, HUI LI
     NATIONAL INST. OF STANDARDS AND TECHNOLOGY: WALT STEVENS, DAVID GARMER
     UNIVERSITY OF PISA: BENEDETTA MENNUCCI, JACOPO TOMASI
     UNIVERSITY OF MEMPHIS: HENRY KURTZ, PRAKASHAN KORAMBATH
     UNIVERSITY OF ALBERTA: TOBY ZENG, MARIUSZ KLOBUKOWSKI
     UNIVERSITY OF NEW ENGLAND: MARK SPACKMAN
     MIE UNIVERSITY: HIROAKI UMEDA
     MICHIGAN STATE UNIVERSITY:
          KAROL KOWALSKI, MARTA WLOCH, JEFFREY GOUR, JESSE LUTZ, PIOTR PIECUCH
     UNIVERSITY OF SILESIA: MONIKA MUSIAL, STANISLAW KUCHARSKI
     FACULTES UNIVERSITAIRES NOTRE-DAME DE LA PAIX:
          OLIVIER QUINET, BENOIT CHAMPAGNE
     UNIVERSITY OF CALIFORNIA - SANTA BARBARA: BERNARD KIRTMAN
     INSTITUTE FOR MOLECULAR SCIENCE:
          KAZUYA ISHIMURA, MICHIO KATOUDA, AND SHIGERU NAGASE
     UNIVERSITY OF NOTRE DAME: DAN CHIPMAN
     KYUSHU UNIVERSITY:
          HARUYUKI NAKANO,
          FENG LONG GU, JACEK KORCHOWIEC, MARCIN MAKOWSKI, AND YURIKO AOKI,
          HIROTOSHI MORI AND EISAKU MIYOSHI
     PENNSYLVANIA STATE UNIVERSITY:
          TZVETELIN IORDANOV, CHET SWALINA, JONATHAN SKONE,
          SHARON HAMMES-SCHIFFER
     WASEDA UNIVERSITY:
          MASATO KOBAYASHI, TOMOKO AKAMA, HIROMI NAKAI
     UNIVERSITY OF NEBRASKA:
          PEIFENG SU, DEJUN SI, YALI WANG, HUI LI
     UNIVERSITY OF ZURICH:
          ROBERTO PEVERATI, KIM BALDRIDGE
     N. COPERNICUS UNIVERSITY AND JACKSON STATE UNIVERSITY:
          MARIA BARYSZ

 EXECUTION OF GAMESS BEGUN Mon Oct  3 11:49:28 2011

            ECHO OF THE FIRST FEW INPUT CARDS -
 INPUT CARD> $CONTRL RUNTYP=HESSIAN COORD=ZMT UNITS=ANGS $END                               
 INPUT CARD> $BASIS GBASIS=N31 NGAUSS=6 NDFUNC=1 $END                                       
 INPUT CARD> $DATA                                                                          
 INPUT CARD>6-31g(d)/ Ammonia Normal modes                                                  
 INPUT CARD>Cnv 3                                                                           
 INPUT CARD>                                                                                
 INPUT CARD>N                                                                               
 INPUT CARD>H 1 1.0025232                                                                   
 INPUT CARD>H 1 1.0025232 2 107.1803051                                                     
 INPUT CARD>H 1 1.0025232 2 107.1803051 3 -114.7843381                                      
 INPUT CARD> $END                                                                           
    1000000 WORDS OF MEMORY AVAILABLE

     BASIS OPTIONS
     -------------
     GBASIS=N31          IGAUSS=       6      POLAR=POPN31  
     NDFUNC=       1     NFFUNC=       0     DIFFSP=       F
     NPFUNC=       0      DIFFS=       F     BASNAM=        


     RUN TITLE
     ---------
 6-31g(d)/ Ammonia Normal modes                                                  

 THE POINT GROUP OF THE MOLECULE IS CNV     
 THE ORDER OF THE PRINCIPAL AXIS IS     3

 YOUR FULLY SUBSTITUTED Z-MATRIX IS
 N   
 H      1   1.0025232
 H      1   1.0025232  2  107.1803
 H      1   1.0025232  2  107.1803  3 -114.7843  0

 THE MOMENTS OF INERTIA ARE (AMU-ANGSTROM**2)
 IXX=     1.653   IYY=     1.653   IZZ=     2.624

 ATOM      ATOMIC                      COORDINATES (BOHR)
           CHARGE         X                   Y                   Z
 N           7.0     0.0000000000        0.0000000000        0.1242515773
 H           1.0     0.8802705545       -1.5246733248       -0.5754648607
 H           1.0     0.8802705545        1.5246733248       -0.5754648607
 H           1.0    -1.7605411090        0.0000000000       -0.5754648607

          INTERNUCLEAR DISTANCES (ANGS.)
          ------------------------------

                1 N          2 H          3 H          4 H     

   1 N       0.0000000    1.0025232 *  1.0025232 *  1.0025232 *
   2 H       1.0025232 *  0.0000000    1.6136449 *  1.6136449 *
   3 H       1.0025232 *  1.6136449 *  0.0000000    1.6136449 *
   4 H       1.0025232 *  1.6136449 *  1.6136449 *  0.0000000  

  * ... LESS THAN  3.000


     ATOMIC BASIS SET
     ----------------
 THE CONTRACTED PRIMITIVE FUNCTIONS HAVE BEEN UNNORMALIZED
 THE CONTRACTED BASIS FUNCTIONS ARE NOW NORMALIZED TO UNITY

  SHELL TYPE  PRIMITIVE        EXPONENT          CONTRACTION COEFFICIENT(S)

 N         

      1   S       1          4173.5114600    0.001834772160
      1   S       2           627.4579110    0.013994627002
      1   S       3           142.9020930    0.068586551812
      1   S       4            40.2343293    0.232240873040
      1   S       5            12.8202129    0.469069948082
      1   S       6             4.3904370    0.360455199063

      2   L       7            11.6263619   -0.114961181702    0.067579743878
      2   L       8             2.7162798   -0.169117478561    0.323907295893
      2   L       9             0.7722184    1.145851947027    0.740895139755

      3   L      10             0.2120315    1.000000000000    1.000000000000

      4   D      11             0.8000000    1.000000000000

 H         

      9   S      12            18.7311370    0.033494604338
      9   S      13             2.8253944    0.234726953484
      9   S      14             0.6401217    0.813757326146

     10   S      15             0.1612778    1.000000000000

 TOTAL NUMBER OF BASIS SET SHELLS             =   10
 NUMBER OF CARTESIAN GAUSSIAN BASIS FUNCTIONS =   21
 NUMBER OF ELECTRONS                          =   10
 CHARGE OF MOLECULE                           =    0
 SPIN MULTIPLICITY                            =    1
 NUMBER OF OCCUPIED ORBITALS (ALPHA)          =    5
 NUMBER OF OCCUPIED ORBITALS (BETA )          =    5
 TOTAL NUMBER OF ATOMS                        =    4
 THE NUCLEAR REPULSION ENERGY IS       12.0685704471

     $CONTRL OPTIONS
     ---------------
 SCFTYP=RHF          RUNTYP=HESSIAN      EXETYP=RUN     
 MPLEVL=       0     CITYP =NONE         CCTYP =NONE         VBTYP =NONE    
 DFTTYP=NONE         TDDFT =NONE    
 MULT  =       1     ICHARG=       0     NZVAR =       0     COORD =ZMT     
 PP    =NONE         RELWFN=NONE         LOCAL =NONE         NUMGRD=       F
 ISPHER=      -1     NOSYM =       0     MAXIT =      30     UNITS =ANGS    
 PLTORB=       F     MOLPLT=       F     AIMPAC=       F     FRIEND=        
 NPRINT=       7     IREST =       0     GEOM  =INPUT   
 NORMF =       0     NORMP =       0     ITOL  =      20     ICUT  =       9
 INTTYP=BEST         GRDTYP=BEST         QMTTOL= 1.0E-06

     $SYSTEM OPTIONS
     ---------------
  REPLICATED MEMORY=     1000000 WORDS (ON EVERY NODE).
 DISTRIBUTED MEMDDI=           0 MILLION WORDS IN AGGREGATE,
 MEMDDI DISTRIBUTED OVER   1 PROCESSORS IS           0 WORDS/PROCESSOR.
 TOTAL MEMORY REQUESTED ON EACH PROCESSOR=     1000000 WORDS.
 TIMLIM=      525600.00 MINUTES, OR     365.0 DAYS.
 PARALL= F  BALTYP=  DLB     KDIAG=    0  COREFL= F
 MXSEQ2=     300 MXSEQ3=     150

          ----------------
          PROPERTIES INPUT
          ----------------

     MOMENTS            FIELD           POTENTIAL          DENSITY
 IEMOM =       1   IEFLD =       0   IEPOT =       0   IEDEN =       0
 WHERE =COMASS     WHERE =NUCLEI     WHERE =NUCLEI     WHERE =NUCLEI  
 OUTPUT=BOTH       OUTPUT=BOTH       OUTPUT=BOTH       OUTPUT=BOTH    
 IEMINT=       0   IEFINT=       0                     IEDINT=       0
                                                       MORB  =       0
          EXTRAPOLATION IN EFFECT
          DIIS IN EFFECT
 ORBITAL PRINTING OPTION: NPREO=     1    21     2     1

     -------------------------------
     INTEGRAL TRANSFORMATION OPTIONS
     -------------------------------
     NWORD  =            0
     CUTOFF = 1.0E-09     MPTRAN =       0
     DIRTRF =       F     AOINTS =DUP     

          ----------------------
          INTEGRAL INPUT OPTIONS
          ----------------------
 NOPK  =       1 NORDER=       0 SCHWRZ=       F

     ------------------------------------------
     THE POINT GROUP IS CNV, NAXIS= 3, ORDER= 6
     ------------------------------------------

     DIMENSIONS OF THE SYMMETRY SUBSPACES ARE
 A1  =    9     A2  =    0     E   =    6

 ..... DONE SETTING UP THE RUN .....
 STEP CPU TIME =     0.00 TOTAL CPU TIME =        0.0 (    0.0 MIN)
 TOTAL WALL CLOCK TIME=        0.0 SECONDS, CPU UTILIZATION IS   0.00%

     ---------------------------------
     HESSIAN MATRIX CONTROL PARAMETERS
     ---------------------------------
     METHOD=ANALYTIC   NVIB  =       2   VIBSIZ= 0.01000
     RDHESS=       F   PURIFY=       F   PRTIFC=       F
     VIBANL=       T   DECOMP=       F   PROJCT=       F
     SCLFAC= 1.00000   PRTSCN=       F   NPRT  =       0
     PULCOR=       F   NPUN  =       0   REDOVB=       T
     THERMOCHEMISTRY WILL BE PRINTED FOR    1 TEMPERATURES:
      298.15000

     ------------------------------
     CPHF RESPONSE SOLUTION OPTIONS
     ------------------------------
     POLAR  =       F     NWORD  =       0
     CPHF   =AO      

          ********************
          1 ELECTRON INTEGRALS
          ********************
 ...... END OF ONE-ELECTRON INTEGRALS ......
 STEP CPU TIME =     0.00 TOTAL CPU TIME =        0.0 (    0.0 MIN)
 TOTAL WALL CLOCK TIME=        0.0 SECONDS, CPU UTILIZATION IS   0.00%

          -------------
          GUESS OPTIONS
          -------------
          GUESS =HUCKEL            NORB  =       0          NORDER=       0
          MIX   =       F          PRTMO =       F          PUNMO =       F
          TOLZ  = 1.0E-08          TOLE  = 1.0E-05
          SYMDEN=       F          PURIFY=       F

 INITIAL GUESS ORBITALS GENERATED BY HUCKEL   ROUTINE.
 HUCKEL GUESS REQUIRES      6301 WORDS.

 SYMMETRIES FOR INITIAL GUESS ORBITALS FOLLOW.   BOTH SET(S).
     5 ORBITALS ARE OCCUPIED (    1 CORE ORBITALS).
     2=A1       3=E        4=E        5=A1       6=?E       7=?E       8=A1  
     9=A1      10=A1      11=A1      12=A1      13=A1      14=E       15=E   
 ...... END OF INITIAL ORBITAL SELECTION ......
 STEP CPU TIME =     0.00 TOTAL CPU TIME =        0.0 (    0.0 MIN)
 TOTAL WALL CLOCK TIME=        0.0 SECONDS, CPU UTILIZATION IS   0.00%

                    ----------------------
                    AO INTEGRAL TECHNOLOGY
                    ----------------------
     S,P,L SHELL ROTATED AXIS INTEGRALS, REPROGRAMMED BY
        KAZUYA ISHIMURA (IMS) AND JOSE SIERRA (SYNSTAR).
     S,P,D,L SHELL ROTATED AXIS INTEGRALS PROGRAMMED BY
        KAZUYA ISHIMURA (INSTITUTE FOR MOLECULAR SCIENCE).
     S,P,D,F,G SHELL TO TOTAL QUARTET ANGULAR MOMENTUM SUM 5,
        ERIC PROGRAM BY GRAHAM FLETCHER (ELORET AND NASA ADVANCED
        SUPERCOMPUTING DIVISION, AMES RESEARCH CENTER).
     S,P,D,F,G,L SHELL GENERAL RYS QUADRATURE PROGRAMMED BY
        MICHEL DUPUIS (PACIFIC NORTHWEST NATIONAL LABORATORY).

          --------------------
          2 ELECTRON INTEGRALS
          --------------------

 THE -PK- OPTION IS OFF, THE INTEGRALS ARE NOT IN SUPERMATRIX FORM.
 STORING   15000 INTEGRALS/RECORD ON DISK, USING 12 BYTES/INTEGRAL.
 TWO ELECTRON INTEGRAL EVALUATION REQUIRES   90451 WORDS OF MEMORY.
 II,JST,KST,LST =  1  1  1  1 NREC =         1 INTLOC =    1
 II,JST,KST,LST =  2  1  1  1 NREC =         1 INTLOC =    2
 II,JST,KST,LST =  3  1  1  1 NREC =         1 INTLOC =   34
 II,JST,KST,LST =  4  1  1  1 NREC =         1 INTLOC =  214
 II,JST,KST,LST =  5  1  1  1 NREC =         1 INTLOC = 1189
 II,JST,KST,LST =  6  1  1  1 NREC =         1 INTLOC = 1189
 II,JST,KST,LST =  7  1  1  1 NREC =         1 INTLOC = 1189
 II,JST,KST,LST =  8  1  1  1 NREC =         1 INTLOC = 1189
 II,JST,KST,LST =  9  1  1  1 NREC =         1 INTLOC = 1189
 II,JST,KST,LST = 10  1  1  1 NREC =         1 INTLOC = 2682
 TOTAL NUMBER OF NONZERO TWO-ELECTRON INTEGRALS =                5020
          1 INTEGRAL RECORDS WERE STORED ON DISK FILE  8.
  ...... END OF TWO-ELECTRON INTEGRALS .....
 STEP CPU TIME =     0.02 TOTAL CPU TIME =        0.0 (    0.0 MIN)
 TOTAL WALL CLOCK TIME=        0.0 SECONDS, CPU UTILIZATION IS  50.00%

          --------------------------
                 RHF SCF CALCULATION
          --------------------------

     NUCLEAR ENERGY =        12.0685704471
     MAXIT =   30     NPUNCH=    2
     EXTRAP=T  DAMP=F  SHIFT=F  RSTRCT=F  DIIS=T  DEM=F  SOSCF=F
     DENSITY MATRIX CONV=  1.00E-05
     MEMORY REQUIRED FOR RHF ITERS=     34046 WORDS.

 ITER EX DEM     TOTAL ENERGY        E CHANGE  DENSITY CHANGE    DIIS ERROR
          * * *   INITIATING DIIS PROCEDURE   * * *
   1  0  0      -56.0061471093   -56.0061471093   0.196764274   0.490997407
   2  1  0      -56.1730731829    -0.1669260736   0.087671919   0.070218856
   3  2  0      -56.1831340571    -0.0100608742   0.032412601   0.016887340
   4  3  0      -56.1842415171    -0.0011074601   0.010981739   0.008308249
   5  4  0      -56.1843381276    -0.0000966104   0.004049233   0.002232620
   6  5  0      -56.1843545237    -0.0000163962   0.002003162   0.000724496
   7  6  0      -56.1843563319    -0.0000018081   0.000154212   0.000059679
   8  7  0      -56.1843563422    -0.0000000103   0.000025221   0.000013016
   9  8  0      -56.1843563425    -0.0000000003   0.000001931   0.000000867
  10  9  0      -56.1843563425    -0.0000000000   0.000000306   0.000000127

          -----------------
          DENSITY CONVERGED
          -----------------
     TIME TO FORM FOCK OPERATORS=       0.0 SECONDS (       0.0 SEC/ITER)
     TIME TO SOLVE SCF EQUATIONS=       0.0 SECONDS (       0.0 SEC/ITER)

 FINAL RHF ENERGY IS      -56.1843563425 AFTER  10 ITERATIONS

          ------------
          EIGENVECTORS
          ------------

                      1          2          3          4          5
                  -15.5344    -1.1402    -0.6276    -0.6276    -0.4198
                     A1         A1         E          E          A1  
    1  N  1  S    0.994957  -0.197522  -0.000000  -0.000000  -0.062985
    2  N  1  S    0.024839   0.410376  -0.000000  -0.000000   0.147939
    3  N  1  X   -0.000000   0.000000   0.472875  -0.000000   0.000000
    4  N  1  Y   -0.000000   0.000000  -0.000000   0.472875   0.000000
    5  N  1  Z   -0.001516  -0.088821  -0.000000  -0.000000   0.555247
    6  N  1  S   -0.001559   0.427722  -0.000000  -0.000000   0.268446
    7  N  1  X   -0.000000   0.000000   0.278096  -0.000000   0.000000
    8  N  1  Y   -0.000000   0.000000  -0.000000   0.278096   0.000000
    9  N  1  Z    0.000890  -0.047808  -0.000000  -0.000000   0.491975
   10  N  1 XX   -0.003528   0.014937  -0.021420  -0.000000   0.008673
   11  N  1 YY   -0.003528   0.014937   0.021420  -0.000000   0.008673
   12  N  1 ZZ   -0.003353   0.000102  -0.000000  -0.000000  -0.032140
   13  N  1 XY   -0.000000   0.000000  -0.000000   0.024733   0.000000
   14  N  1 XZ   -0.000000   0.000000  -0.039406  -0.000000   0.000000
   15  N  1 YZ   -0.000000   0.000000  -0.000000  -0.039406   0.000000
   16  H  2  S    0.000223   0.137640   0.138452  -0.239806  -0.064356
   17  H  2  S    0.000557   0.009873   0.081650  -0.141422  -0.046346
   18  H  3  S    0.000223   0.137640   0.138452   0.239806  -0.064356
   19  H  3  S    0.000557   0.009873   0.081650   0.141422  -0.046346
   20  H  4  S    0.000223   0.137640  -0.276904  -0.000000  -0.064356
   21  H  4  S    0.000557   0.009873  -0.163300  -0.000000  -0.046346

                      6          7          8          9         10
                    0.2229     0.3249     0.3249     0.8965     0.8965
                     A1         E          E          E          E   
    1  N  1  S   -0.125707  -0.000000   0.000000   0.000000   0.000000
    2  N  1  S    0.100182  -0.000000   0.000000   0.000000   0.000000
    3  N  1  X   -0.000000   0.330100   0.000000  -0.366572   0.000000
    4  N  1  Y   -0.000000  -0.000000  -0.330100   0.000000  -0.366572
    5  N  1  Z   -0.143224  -0.000000   0.000000   0.000000   0.000000
    6  N  1  S    2.008809  -0.000000   0.000000   0.000000   0.000000
    7  N  1  X   -0.000000   1.131297   0.000000   1.230560   0.000000
    8  N  1  Y   -0.000000  -0.000000  -1.131297   0.000000   1.230560
    9  N  1  Z   -0.490243  -0.000000   0.000000   0.000000   0.000000
   10  N  1 XX   -0.039776   0.001751   0.000000   0.119440   0.000000
   11  N  1 YY   -0.039776  -0.001751   0.000000  -0.119440   0.000000
   12  N  1 ZZ   -0.040236  -0.000000   0.000000   0.000000   0.000000
   13  N  1 XY   -0.000000  -0.000000   0.002022   0.000000  -0.137918
   14  N  1 XZ   -0.000000  -0.016766   0.000000   0.081187   0.000000
   15  N  1 YZ   -0.000000  -0.000000   0.016766   0.000000   0.081187
   16  H  2  S   -0.026762  -0.021996  -0.038098  -0.384248   0.665537
   17  H  2  S   -0.985275  -0.900264  -1.559303   0.009521  -0.016491
   18  H  3  S   -0.026762  -0.021996   0.038098  -0.384248  -0.665537
   19  H  3  S   -0.985275  -0.900264   1.559303   0.009521   0.016491
   20  H  4  S   -0.026762   0.043992   0.000000   0.768496   0.000000
   21  H  4  S   -0.985275   1.800527   0.000000  -0.019042   0.000000

                     11         12         13         14         15
                    0.9699     1.2190     1.2322     1.2322     1.3643
                     A1         A1         E          E          A1  
    1  N  1  S    0.017288   0.061561   0.000000   0.000000  -0.094188
    2  N  1  S   -0.245897  -0.699475   0.000000   0.000000  -1.532720
    3  N  1  X   -0.000000   0.000000  -1.025925   0.000000   0.000000
    4  N  1  Y   -0.000000   0.000000   0.000000  -1.025925   0.000000
    5  N  1  Z   -0.957822   0.346546   0.000000   0.000000   0.158455
    6  N  1  S    0.152794   0.988452   0.000000   0.000000   4.181824
    7  N  1  X   -0.000000   0.000000   1.319731   0.000000   0.000000
    8  N  1  Y   -0.000000   0.000000   0.000000   1.319731   0.000000
    9  N  1  Z    1.084958  -0.081909   0.000000   0.000000  -0.813648
   10  N  1 XX   -0.061421  -0.001453  -0.109297   0.000000  -0.416762
   11  N  1 YY   -0.061421  -0.001453   0.109297   0.000000  -0.416762
   12  N  1 ZZ   -0.077761  -0.288072   0.000000   0.000000  -0.085523
   13  N  1 XY   -0.000000   0.000000   0.000000   0.126205   0.000000
   14  N  1 XZ   -0.000000   0.000000  -0.079124   0.000000   0.000000
   15  N  1 YZ   -0.000000   0.000000   0.000000  -0.079124   0.000000
   16  H  2  S    0.111729   0.691281   0.278601  -0.482551  -0.339846
   17  H  2  S    0.043367  -0.541332  -0.676592   1.171892  -0.806240
   18  H  3  S    0.111729   0.691281   0.278601   0.482551  -0.339846
   19  H  3  S    0.043367  -0.541332  -0.676592  -1.171892  -0.806240
   20  H  4  S    0.111729   0.691281  -0.557201   0.000000  -0.339846
   21  H  4  S    0.043367  -0.541332   1.353185   0.000000  -0.806240

                     16         17         18         19         20
                    1.9636     1.9636     2.2826     2.7702     2.7702
                     E          E          A1         E          E   
    1  N  1  S   -0.000000  -0.000000  -0.059390  -0.000000  -0.000000
    2  N  1  S   -0.000000  -0.000000  -0.423482  -0.000000  -0.000000
    3  N  1  X    0.022282  -0.000000   0.000000   0.100692  -0.000000
    4  N  1  Y   -0.000000   0.022282   0.000000  -0.000000   0.100692
    5  N  1  Z   -0.000000  -0.000000  -0.039061  -0.000000  -0.000000
    6  N  1  S   -0.000000  -0.000000   1.548686  -0.000000  -0.000000
    7  N  1  X    0.035138  -0.000000   0.000000   0.675150  -0.000000
    8  N  1  Y   -0.000000   0.035138   0.000000  -0.000000   0.675150
    9  N  1  Z   -0.000000  -0.000000  -0.441207  -0.000000  -0.000000
   10  N  1 XX   -0.546036  -0.000000   0.444845  -0.816576  -0.000000
   11  N  1 YY    0.546036  -0.000000   0.444845   0.816576  -0.000000
   12  N  1 ZZ   -0.000000  -0.000000  -1.070609  -0.000000  -0.000000
   13  N  1 XY   -0.000000   0.630508   0.000000  -0.000000   0.942901
   14  N  1 XZ    0.775362  -0.000000   0.000000  -0.766608  -0.000000
   15  N  1 YZ   -0.000000   0.775362   0.000000  -0.000000  -0.766608
   16  H  2  S   -0.017749   0.030742  -0.499979  -0.476601   0.825496
   17  H  2  S   -0.000124   0.000214  -0.201142   0.009316  -0.016135
   18  H  3  S   -0.017749  -0.030742  -0.499979  -0.476601  -0.825496
   19  H  3  S   -0.000124  -0.000214  -0.201142   0.009316   0.016135
   20  H  4  S    0.035498  -0.000000  -0.499979   0.953201  -0.000000
   21  H  4  S    0.000247  -0.000000  -0.201142  -0.018632  -0.000000

                     21
                    4.0964
                     A1  
    1  N  1  S   -0.464831
    2  N  1  S    1.195549
    3  N  1  X   -0.000000
    4  N  1  Y   -0.000000
    5  N  1  Z    0.098312
    6  N  1  S    3.157974
    7  N  1  X   -0.000000
    8  N  1  Y   -0.000000
    9  N  1  Z   -0.306600
   10  N  1 XX   -1.506335
   11  N  1 YY   -1.506335
   12  N  1 ZZ   -1.517580
   13  N  1 XY   -0.000000
   14  N  1 XZ   -0.000000
   15  N  1 YZ   -0.000000
   16  H  2  S    0.151246
   17  H  2  S   -0.561025
   18  H  3  S    0.151246
   19  H  3  S   -0.561025
   20  H  4  S    0.151246
   21  H  4  S   -0.561025
 ...... END OF RHF CALCULATION ......
 STEP CPU TIME =     0.01 TOTAL CPU TIME =        0.0 (    0.0 MIN)
 TOTAL WALL CLOCK TIME=        0.1 SECONDS, CPU UTILIZATION IS  60.00%

     ----------------------------------------------------------------
     PROPERTY VALUES FOR THE RHF   SELF-CONSISTENT FIELD WAVEFUNCTION
     ----------------------------------------------------------------

          -----------------
          ENERGY COMPONENTS
          -----------------

         WAVEFUNCTION NORMALIZATION =       1.0000000000

                ONE ELECTRON ENERGY =     -99.8063916864
                TWO ELECTRON ENERGY =      31.5534648968
           NUCLEAR REPULSION ENERGY =      12.0685704471
                                      ------------------
                       TOTAL ENERGY =     -56.1843563425

 ELECTRON-ELECTRON POTENTIAL ENERGY =      31.5534648968
  NUCLEUS-ELECTRON POTENTIAL ENERGY =    -155.9082328807
   NUCLEUS-NUCLEUS POTENTIAL ENERGY =      12.0685704471
                                      ------------------
             TOTAL POTENTIAL ENERGY =    -112.2861975368
               TOTAL KINETIC ENERGY =      56.1018411943
                 VIRIAL RATIO (V/T) =       2.0014708100

          ---------------------------------------
          MULLIKEN AND LOWDIN POPULATION ANALYSES
          ---------------------------------------

     ATOMIC MULLIKEN POPULATION IN EACH MOLECULAR ORBITAL

                      1          2          3          4          5

                  2.000000   2.000000   2.000000   2.000000   2.000000

    1             1.999657   1.574959   1.244748   1.244748   1.931874
    2             0.000114   0.141680   0.125875   0.377626   0.022709
    3             0.000114   0.141680   0.125875   0.377626   0.022709
    4             0.000114   0.141680   0.503501   0.000000   0.022709

               ----- POPULATIONS IN EACH AO -----
                             MULLIKEN      LOWDIN
              1  N  1  S      1.99547     1.97925
              2  N  1  S      0.76751     0.52144
              3  N  1  X      0.74771     0.68724
              4  N  1  Y      0.74771     0.68757
              5  N  1  Z      0.96750     0.94501
              6  N  1  S      0.88837     0.42353
              7  N  1  X      0.47815     0.55409
              8  N  1  Y      0.47815     0.55501
              9  N  1  Z      0.85140     0.87382
             10  N  1 XX      0.02693     0.19707
             11  N  1 YY      0.02693     0.19707
             12  N  1 ZZ     -0.00998     0.14980
             13  N  1 XY      0.00765     0.01211
             14  N  1 XZ      0.01124     0.01326
             15  N  1 YZ      0.01124     0.01332
             16  H  2  S      0.50598     0.46449
             17  H  2  S      0.16202     0.26512
             18  H  3  S      0.50598     0.46449
             19  H  3  S      0.16202     0.26512
             20  H  4  S      0.50598     0.46599
             21  H  4  S      0.16202     0.26520

          ----- MULLIKEN ATOMIC OVERLAP POPULATIONS -----
          (OFF-DIAGONAL ELEMENTS NEED TO BE MULTIPLIED BY 2)

             1           2           3           4

    1    7.0009431
    2    0.3316808   0.3878495
    3    0.3316808  -0.0257627   0.3878495
    4    0.3316808  -0.0257627  -0.0257627   0.3878495

          TOTAL MULLIKEN AND LOWDIN ATOMIC POPULATIONS
       ATOM         MULL.POP.    CHARGE          LOW.POP.     CHARGE
    1 N             7.995985   -0.995985         7.809593   -0.809593
    2 H             0.668005    0.331995         0.729607    0.270393
    3 H             0.668005    0.331995         0.729607    0.270393
    4 H             0.668005    0.331995         0.731193    0.268807

          -------------------------------
          BOND ORDER AND VALENCE ANALYSIS     BOND ORDER THRESHOLD=0.050
          -------------------------------

                   BOND                       BOND                       BOND
  ATOM PAIR DIST  ORDER      ATOM PAIR DIST  ORDER      ATOM PAIR DIST  ORDER
    1   2  1.003  0.865        1   3  1.003  0.865        1   4  1.003  0.865

                       TOTAL       BONDED        FREE
      ATOM            VALENCE     VALENCE     VALENCE
    1 N                 2.596       2.596       0.000
    2 H                 0.852       0.852      -0.000
    3 H                 0.852       0.852      -0.000
    4 H                 0.852       0.852      -0.000

          ---------------------
          ELECTROSTATIC MOMENTS
          ---------------------

 POINT   1           X           Y           Z (BOHR)    CHARGE
                 0.000000   -0.000000   -0.000000       -0.00 (A.U.)
         DX          DY          DZ         /D/  (DEBYE)
     0.000000   -0.000000   -1.919878    1.919878
 ...... END OF PROPERTY EVALUATION ......
 STEP CPU TIME =     0.01 TOTAL CPU TIME =        0.0 (    0.0 MIN)
 TOTAL WALL CLOCK TIME=        0.1 SECONDS, CPU UTILIZATION IS  80.00%

 REGENERATING AO INTEGRAL LIST IN C1 POINT GROUP FOR AO-DRIVEN CPHF

          --------------------
          2 ELECTRON INTEGRALS
          --------------------

 THE -PK- OPTION IS OFF, THE INTEGRALS ARE NOT IN SUPERMATRIX FORM.
 STORING   15000 INTEGRALS/RECORD ON DISK, USING 12 BYTES/INTEGRAL.
 TWO ELECTRON INTEGRAL EVALUATION REQUIRES   90451 WORDS OF MEMORY.
 II,JST,KST,LST =  1  1  1  1 NREC =         1 INTLOC =    1
 II,JST,KST,LST =  2  1  1  1 NREC =         1 INTLOC =    2
 II,JST,KST,LST =  3  1  1  1 NREC =         1 INTLOC =   34
 II,JST,KST,LST =  4  1  1  1 NREC =         1 INTLOC =  214
 II,JST,KST,LST =  5  1  1  1 NREC =         1 INTLOC = 1189
 II,JST,KST,LST =  6  1  1  1 NREC =         1 INTLOC = 3245
 II,JST,KST,LST =  7  1  1  1 NREC =         1 INTLOC = 5710
 II,JST,KST,LST =  8  1  1  1 NREC =         1 INTLOC = 8591
 II,JST,KST,LST =  9  1  1  1 NREC =         1 INTLOC =11986
 II,JST,KST,LST = 10  1  1  1 NREC =         2 INTLOC =  108
 TOTAL NUMBER OF NONZERO TWO-ELECTRON INTEGRALS =               18712
          2 INTEGRAL RECORDS WERE STORED ON DISK FILE  8.
  ...... END OF TWO-ELECTRON INTEGRALS .....
 STEP CPU TIME =     0.01 TOTAL CPU TIME =        0.0 (    0.0 MIN)
 TOTAL WALL CLOCK TIME=        0.1 SECONDS, CPU UTILIZATION IS  83.33%

     ---------------------------------------------
     1ST AND 2ND INTEGRAL DERIVATIVE CONTRIBUTIONS
     ---------------------------------------------
 ...... END OF 1-ELECTRON GRAD+HESS+FOCKDER ......
 STEP CPU TIME =     0.00 TOTAL CPU TIME =        0.0 (    0.0 MIN)
 TOTAL WALL CLOCK TIME=        0.1 SECONDS, CPU UTILIZATION IS  83.33%

     ----------------------------------------------
     TWO ELECTRON INTEGRAL DERIVATIVE CONTRIBUTIONS
     ----------------------------------------------

      12182 WORDS REQUIRED,   1000000 WORDS AVAILABLE
 THE COARSE/FINE SCHWARZ SCREENINGS SKIPPED          0/         0 BLOCKS.
 THE NUMBER OF DERIVATIVE INTEGRAL BLOCKS COMPUTED WAS       360
 STEP CPU TIME =     0.06 TOTAL CPU TIME =        0.1 (    0.0 MIN)
 TOTAL WALL CLOCK TIME=        0.1 SECONDS, CPU UTILIZATION IS  91.67%
 ...... END OF 2-ELECTRON GRAD+HESS+FOCKDER ......
 STEP CPU TIME =     0.00 TOTAL CPU TIME =        0.1 (    0.0 MIN)
 TOTAL WALL CLOCK TIME=        0.1 SECONDS, CPU UTILIZATION IS  91.67%

     -------------------------------------------
     COUPLED-PERTURBED CLOSED SHELL HARTREE-FOCK
     -------------------------------------------
 THE CPHF HAS      80 INDEPENDENT ORBITAL ROTATIONS.
 SOLVING FOR    6 NUCLEAR RESPONSES AND 0 ELECTRIC FIELD RESPONSES
           -FA- WILL USE      2388 WORDS,
           -TA- WILL USE      7269 WORDS,
          -FCK- WILL USE     38614 WORDS,
 -WXY- AND -YA- WILL USE     37788 WORDS,
               THERE ARE   1000000 WORDS OF REPLICATED MEMORY AVAILABLE.
        TIME FOR -FA-   =        0.000
        TIME FOR -TA-   =        0.000
        TIME FOR -FCK-  =        0.000
 PRECONDITIONED CONJUGATE GRADIENT SOLVER     CONV. TOLERANCE=5.00E-05
 ITER    RESPONSE ERROR        IMPROVED
   1       3.73208E-01             6
   2       1.47044E-01             6
   3       2.58883E-02             6
   4       5.80032E-03             6
   5       1.20277E-03             6
   6       1.65361E-04             6
   7       1.97980E-05             3
 THE CPHF HAS CONVERGED AFTER  7 ITERATIONS.
 IT REQUIRED    39 FOCK-LIKE BUILDS TO FIND THE   6 SYMMETRY UNIQUE RESPONSES.
        TIME FOR -YA-   =        0.010
 ...... DONE WITH CPHF CONTRIBUTIONS ......
 STEP CPU TIME =     0.01 TOTAL CPU TIME =        0.1 (    0.0 MIN)
 TOTAL WALL CLOCK TIME=        0.1 SECONDS, CPU UTILIZATION IS  92.31%

          ---------------
          ENERGY GRADIENT
          ---------------

 UNITS ARE HARTREE/BOHR    E'X               E'Y               E'Z 
    1 N               -0.000000000      -0.000000000      -0.000000752
    2 H                0.000000815      -0.000001412       0.000000251
    3 H                0.000000815       0.000001412       0.000000251
    4 H               -0.000001630       0.000000000       0.000000251

          -------------------------------
          CARTESIAN FORCE CONSTANT MATRIX
          -------------------------------

                                   1                          2
                               N                          H         
                          X        Y        Z        X        Y        Z
  1   N            X 0.741858-0.000000-0.000000-0.162239 0.147305 0.098283
                   Y 0.000000 0.741858-0.000000 0.147305-0.332332-0.170230
                   Z-0.000000-0.000000 0.266166 0.066402-0.115011-0.088722
  2   H            X-0.162239 0.147305 0.066402 0.167622-0.165609-0.077429
                   Y 0.147305-0.332332-0.115011-0.165609 0.358851 0.134111
                   Z 0.098283-0.170230-0.088722-0.077429 0.134111 0.081657
  3   H            X-0.162239-0.147305 0.066402 0.013160 0.021772-0.009826
                   Y-0.147305-0.332332 0.115011-0.021772-0.029111 0.018406
                   Z 0.098283 0.170230-0.088722-0.009826-0.018406 0.003533
  4   H            X-0.417379 0.000000-0.132804-0.018543-0.003468-0.011027
                   Y 0.000000-0.077192 0.000000 0.040076 0.002592 0.017713
                   Z-0.196565 0.000000-0.088722 0.020853-0.000693 0.003533

                                   3                          4
                               H                          H         
                          X        Y        Z        X        Y        Z
  3   H            X 0.167622 0.165609-0.077429-0.018543-0.040076 0.020853
                   Y 0.165609 0.358851-0.134111 0.003468 0.002592 0.000693
                   Z-0.077429-0.134111 0.081657-0.011027-0.017713 0.003533
  4   H            X-0.018543 0.003468-0.011027 0.454466 0.000000 0.154858
                   Y-0.040076 0.002592-0.017713 0.000000 0.072008 0.000000
                   Z 0.020853 0.000693 0.003533 0.154858 0.000000 0.081657

          ------------------------          ----------------
          DIPOLE DERIVATIVE TENSOR          (DEBYE/ANGSTROM)
          ------------------------          ----------------

        ATOM                 MU-X           MU-Y           MU-Z
     N          D/DX    -1.827802251    0.000000000    0.000000000
                D/DY     0.000000000   -1.827802251    0.000000000
                D/DZ     0.000000000    0.000000000   -3.422463968
     H          D/DX     0.746564319    0.237848155    0.197190547
                D/DY     0.237848155    0.471920927   -0.341544046
                D/DZ     0.444771677   -0.770367142    1.140834741
     H          D/DX     0.746564319   -0.237848155    0.197190547
                D/DY    -0.237848155    0.471920927    0.341544046
                D/DZ     0.444771677    0.770367142    1.140834741
     H          D/DX     0.334599231    0.000000000   -0.394381093
                D/DY     0.000000000    0.883886015    0.000000000
                D/DZ    -0.889543354    0.000000000    1.140834741

          --------------------------------------------------------
          NORMAL COORDINATE ANALYSIS IN THE HARMONIC APPROXIMATION
          --------------------------------------------------------

          ATOMIC WEIGHTS (AMU)

    1     N                14.00307
    2     H                 1.00782
    3     H                 1.00782
    4     H                 1.00782

 MODES 1 TO 6 ARE TAKEN AS ROTATIONS AND TRANSLATIONS.

 ANALYZING SYMMETRY OF NORMAL MODES...
 WATCH OUT!! THE COUNTING OF DEGENERATE MODES COUNTS INDIVIDUAL MODES,
 E.G. 2*E MEANS ONE (1) SET OF DEGENERATE E MODES

 --- SYMMETRY FOR NORMAL MODES ---
 INCLUDING TRANSLATION AND ROTATION
    3*A1     1*A2     8*E   
 EXCLUDING TRANSLATION AND ROTATION (SAYVETZ < 0.01)
    2*A1     0*A2     4*E   

     FREQUENCIES IN CM**-1, IR INTENSITIES IN DEBYE**2/AMU-ANGSTROM**2,
     REDUCED MASSES IN AMU.

                          1           2           3           4           5
       FREQUENCY:         0.74        0.74        0.00        4.23        4.23  
        SYMMETRY:         E           E           A1          E           E   
    REDUCED MASS:      4.94801     4.94801     4.25664     1.00874     1.00874
    IR INTENSITY:      0.06706     0.06706     0.00000     2.16272     2.16272

  1   N            X -0.10233687  0.22539905  0.00000000 -0.00081345  0.00830154
                   Y  0.22539905  0.10233687 -0.00000000 -0.00830154 -0.00081345
                   Z  0.00000000 -0.00000000  0.24234650 -0.00000000 -0.00000000
  2   H            X -0.08169128  0.17992642  0.00000009  0.02684751 -0.27397907
                   Y  0.17992666  0.08169111 -0.00000015  0.27397817  0.02684553
                   Z  0.12505725 -0.01221955  0.24234643 -0.58028378 -0.41538742
  3   H            X -0.08169105  0.17992653  0.00000009  0.02684563 -0.27397925
                   Y  0.17992656  0.08169134  0.00000015  0.27397799  0.02684740
                   Z -0.07311107 -0.10219298  0.24234643  0.64987795 -0.29484678
  4   H            X -0.08169126  0.17992668 -0.00000018  0.02684641 -0.27397754
                   Y  0.17992641  0.08169114 -0.00000000  0.27397970  0.02684662
                   Z -0.05194618  0.11441253  0.24234643 -0.06959417  0.71023421

 TRANS. SAYVETZ    X -1.68002160  3.70028212  0.00000000  0.06977900 -0.71212045
                   Y  3.70028212  1.68002160 -0.00000000  0.71212045  0.06977900
                   Z  0.00000000 -0.00000000  4.12632342 -0.00000000 -0.00000000
               TOTAL  4.06381106  4.06381106  4.12632342  0.71553103  0.71553103

   ROT. SAYVETZ    X -0.38362399 -0.17417499  0.00000000  2.38141157  0.23334889
                   Y -0.17417499  0.38362399  0.00000000 -0.23334889  2.38141157
                   Z  0.00000000 -0.00000000  0.00000000  0.00000000 -0.00000000
               TOTAL  0.42131259  0.42131259  0.00000000  2.39281692  2.39281692

                          6           7           8           9          10
       FREQUENCY:         5.82     1208.86     1849.50     1849.50     3689.41  
        SYMMETRY:         A2          A1          E           E           A1  
    REDUCED MASS:      1.00782     1.18047     1.06614     1.06614     1.02687
    IR INTENSITY:      0.00000     5.16608     0.50483     0.50483     0.00758

  1   N            X -0.00000000 -0.00000000  0.01290296 -0.06357954 -0.00000000
                   Y  0.00000000  0.00000000 -0.06357954 -0.01290296  0.00000000
                   Z  0.00000000 -0.10608580  0.00000000  0.00000000 -0.03777415
  2   H            X -0.49805516  0.09645708  0.26894255  0.58498866 -0.27089176
                   Y -0.28755228 -0.16706857  0.00394105  0.38846115  0.46919829
                   Z -0.00000000  0.49133099  0.22646133 -0.07589632  0.17494949
  3   H            X  0.49805516  0.09645708 -0.47571122  0.43386710 -0.27089176
                   Y -0.28755228  0.16706857  0.15506260 -0.35619262 -0.46919829
                   Z  0.00000000  0.49133099 -0.17895880 -0.15817311  0.17494949
  4   H            X  0.00000000 -0.19291416  0.02749077 -0.13546121  0.54178351
                   Y  0.57510456  0.00000000  0.72439091  0.14700937  0.00000000
                   Z -0.00000000  0.49133099 -0.04750253  0.23406942  0.17494949

 TRANS. SAYVETZ    X -0.00000000 -0.00000000  0.00000034 -0.00000165  0.00000000
                   Y  0.00000000  0.00000000 -0.00000165 -0.00000034 -0.00000000
                   Z  0.00000000  0.00000004  0.00000000  0.00000000  0.00000136
               TOTAL  0.00000000  0.00000004  0.00000169  0.00000169  0.00000136

   ROT. SAYVETZ    X  0.00000000 -0.00000000 -0.00000742 -0.00000151 -0.00000000
                   Y -0.00000000 -0.00000000 -0.00000151  0.00000742  0.00000000
                   Z -3.06125397 -0.00000000 -0.00000000  0.00000000 -0.00000000
               TOTAL  3.06125397  0.00000000  0.00000758  0.00000758  0.00000000

                         11          12
       FREQUENCY:      3822.45     3822.45  
        SYMMETRY:         E           E   
    REDUCED MASS:      1.09085     1.09085
    IR INTENSITY:      0.01110     0.01110

  1   N            X -0.05883913  0.04893750
                   Y -0.04893750 -0.05883913
                   Z -0.00000000 -0.00000000
  2   H            X -0.07638842 -0.35536064
                   Y  0.09794176  0.62140853
                   Z  0.04771778  0.27767593
  3   H            X  0.33549365  0.13985846
                   Y  0.59316086  0.20952646
                   Z -0.26433330 -0.09751316
  4   H            X  0.55842493 -0.46445142
                   Y -0.01114902 -0.01340482
                   Z  0.21661552 -0.18016278

 TRANS. SAYVETZ    X -0.00000117  0.00000097
                   Y -0.00000097 -0.00000117
                   Z -0.00000000 -0.00000000
               TOTAL  0.00000152  0.00000152

   ROT. SAYVETZ    X -0.00000114 -0.00000137
                   Y  0.00000137 -0.00000114
                   Z -0.00000000 -0.00000000
               TOTAL  0.00000178  0.00000178

 REFERENCE ON SAYVETZ CONDITIONS - A. SAYVETZ, J.CHEM.PHYS., 7, 383-389(1939).

 NOTE - THE MODES J,K ARE ORTHONORMALIZED ACCORDING TO
 SUM ON I   M(I) * (X(I,J)*X(I,K) + Y(I,J)*Y(I,K) + Z(I,J)*Z(I,K)) = DELTA(J,K)

     -------------------------------
     THERMOCHEMISTRY AT T=  298.15 K
     -------------------------------

 USING IDEAL GAS, RIGID ROTOR, HARMONIC NORMAL MODE APPROXIMATIONS.
 P=  1.01325E+05 PASCAL.
 ALL FREQUENCIES ARE SCALED BY   1.00000
 THE MOMENTS OF INERTIA ARE (IN AMU*BOHR**2)
      5.90308     5.90308     9.37128
 THE ROTATIONAL SYMMETRY NUMBER IS  3.0
 THE ROTATIONAL CONSTANTS ARE (IN GHZ)
    305.44887   305.44887   192.40584
 THE HARMONIC ZERO POINT ENERGY IS (SCALED BY   1.000)
        0.037002 HARTREE/MOLECULE     8121.080032 CM**-1/MOLECULE 
       23.219356 KCAL/MOL               97.149787 KJ/MOL

               Q               LN Q
 ELEC.     1.00000E+00       0.000000
 TRANS.    2.76149E+06      14.831281
 ROT.      6.81864E+01       4.222246
 VIB.      1.00320E+00       0.003198
 TOT.      1.88899E+08      19.056725

              E         H         G         CV        CP        S
           KJ/MOL    KJ/MOL    KJ/MOL   J/MOL-K   J/MOL-K   J/MOL-K
 ELEC.      0.000     0.000     0.000     0.000     0.000     0.000
 TRANS.     3.718     6.197   -36.766    12.472    20.786   144.099
 ROT.       3.718     3.718   -10.467    12.472    12.472    47.577
 VIB.      97.198    97.198    97.142     1.010     1.010     0.189
 TOTAL    104.635   107.114    49.909    25.953    34.267   191.865
 VIB. THERMAL CORRECTION E(T)-E(0) = H(T)-H(0) =    48.347 J/MOL

              E         H         G         CV        CP        S
         KCAL/MOL  KCAL/MOL  KCAL/MOL CAL/MOL-K CAL/MOL-K CAL/MOL-K
 ELEC.      0.000     0.000     0.000     0.000     0.000     0.000
 TRANS.     0.889     1.481    -8.787     2.981     4.968    34.441
 ROT.       0.889     0.889    -2.502     2.981     2.981    11.371
 VIB.      23.231    23.231    23.217     0.241     0.241     0.045
 TOTAL     25.008    25.601    11.929     6.203     8.190    45.857
 VIB. THERMAL CORRECTION E(T)-E(0) = H(T)-H(0) =    11.555 CAL/MOL
 ......END OF NORMAL COORDINATE ANALYSIS......
 STEP CPU TIME =     0.01 TOTAL CPU TIME =        0.1 (    0.0 MIN)
 TOTAL WALL CLOCK TIME=        0.1 SECONDS, CPU UTILIZATION IS  92.86%
      580000  WORDS OF DYNAMIC MEMORY USED
 EXECUTION OF GAMESS TERMINATED NORMALLY Mon Oct  3 11:49:28 2011
 DDI: 263224 bytes (0.3 MB / 0 MWords) used by master data server.

 ----------------------------------------
 CPU timing information for all processes
 ========================================
 0: 0.120 + 0.16 = 0.136
 ----------------------------------------
 ddikick.x: exited gracefully.
unset echo
----- accounting info -----
Files used on the master node idhi were:
-rw-r--r-- 1 koushik koushik     230 2011-10-03 11:49 /home/koushik/Desktop/gamess/ammonianm.F05
-rw-r--r-- 1 koushik koushik  360024 2011-10-03 11:49 /home/koushik/Desktop/gamess/ammonianm.F08
-rw-r--r-- 1 koushik koushik 1177920 2011-10-03 11:49 /home/koushik/Desktop/gamess/ammonianm.F10
-rw-r--r-- 1 koushik koushik   22272 2011-10-03 11:49 /home/koushik/Desktop/gamess/ammonianm.F18
Mon Oct  3 11:49:31 IST 2011
0.0u 0.0s 0:03.21 4.0% 0+0k 0+24io 0pf+0w
