          ******************************************************
          *         GAMESS VERSION =  1 OCT 2010 (R1)          *
          *             FROM IOWA STATE UNIVERSITY             *
          * M.W.SCHMIDT, K.K.BALDRIDGE, J.A.BOATZ, S.T.ELBERT, *
          *   M.S.GORDON, J.H.JENSEN, S.KOSEKI, N.MATSUNAGA,   *
          *          K.A.NGUYEN, S.J.SU, T.L.WINDUS,           *
          *       TOGETHER WITH M.DUPUIS, J.A.MONTGOMERY       *
          *         J.COMPUT.CHEM.  14, 1347-1363(1993)        *
          **************** 32 BIT LINUX VERSION ****************

  SINCE 1993, STUDENTS AND POSTDOCS WORKING AT IOWA STATE UNIVERSITY
  AND ALSO IN THEIR VARIOUS JOBS AFTER LEAVING ISU HAVE MADE IMPORTANT
  CONTRIBUTIONS TO THE CODE:
     IVANA ADAMOVIC, CHRISTINE AIKENS, YURI ALEXEEV, POOJA ARORA,
     ANDREY ASADCHEV, ROB BELL, PRADIPTA BANDYOPADHYAY, JONATHAN BENTZ,
     BRETT BODE, GALINA CHABAN, WEI CHEN, CHEOL HO CHOI, PAUL DAY, TIM DUDLEY,
     DMITRI FEDOROV, GRAHAM FLETCHER, MARK FREITAG, KURT GLAESEMANN, DAN KEMP,
     GRANT MERRILL, NORIYUKI MINEZAWA, JONATHAN MULLIN, TAKESHI NAGATA,
     SEAN NEDD, HEATHER NETZLOFF, BOSILJKA NJEGIC, RYAN OLSON, MIKE PAK,
     JIM SHOEMAKER, LYUDMILA SLIPCHENKO, SAROM SOK, JIE SONG,
     TETSUYA TAKETSUGU, SIMON WEBB, SOOHAENG YOO, FEDERICO ZAHARIEV

  ADDITIONAL CODE HAS BEEN PROVIDED BY COLLABORATORS IN OTHER GROUPS:
     IOWA STATE UNIVERSITY:
          JOE IVANIC, LAIMUTIS BYTAUTAS, KLAUS RUEDENBERG
     UNIVERSITY OF TOKYO: KIMIHIKO HIRAO, TAKAHITO NAKAJIMA,
          TAKAO TSUNEDA, MUNEAKI KAMIYA, SUSUMU YANAGISAWA,
          KIYOSHI YAGI, MAHITO CHIBA, SEIKEN TOKURA, NAOAKI KAWAKAMI
     UNIVERSITY OF AARHUS: FRANK JENSEN
     UNIVERSITY OF IOWA: VISVALDAS KAIRYS, HUI LI
     NATIONAL INST. OF STANDARDS AND TECHNOLOGY: WALT STEVENS, DAVID GARMER
     UNIVERSITY OF PISA: BENEDETTA MENNUCCI, JACOPO TOMASI
     UNIVERSITY OF MEMPHIS: HENRY KURTZ, PRAKASHAN KORAMBATH
     UNIVERSITY OF ALBERTA: TOBY ZENG, MARIUSZ KLOBUKOWSKI
     UNIVERSITY OF NEW ENGLAND: MARK SPACKMAN
     MIE UNIVERSITY: HIROAKI UMEDA
     MICHIGAN STATE UNIVERSITY:
          KAROL KOWALSKI, MARTA WLOCH, JEFFREY GOUR, JESSE LUTZ, PIOTR PIECUCH
     UNIVERSITY OF SILESIA: MONIKA MUSIAL, STANISLAW KUCHARSKI
     FACULTES UNIVERSITAIRES NOTRE-DAME DE LA PAIX:
          OLIVIER QUINET, BENOIT CHAMPAGNE
     UNIVERSITY OF CALIFORNIA - SANTA BARBARA: BERNARD KIRTMAN
     INSTITUTE FOR MOLECULAR SCIENCE:
          KAZUYA ISHIMURA, MICHIO KATOUDA, AND SHIGERU NAGASE
     UNIVERSITY OF NOTRE DAME: DAN CHIPMAN
     KYUSHU UNIVERSITY:
          HARUYUKI NAKANO,
          FENG LONG GU, JACEK KORCHOWIEC, MARCIN MAKOWSKI, AND YURIKO AOKI,
          HIROTOSHI MORI AND EISAKU MIYOSHI
     PENNSYLVANIA STATE UNIVERSITY:
          TZVETELIN IORDANOV, CHET SWALINA, JONATHAN SKONE,
          SHARON HAMMES-SCHIFFER
     WASEDA UNIVERSITY:
          MASATO KOBAYASHI, TOMOKO AKAMA, HIROMI NAKAI
     UNIVERSITY OF NEBRASKA:
          PEIFENG SU, DEJUN SI, YALI WANG, HUI LI
     UNIVERSITY OF ZURICH:
          ROBERTO PEVERATI, KIM BALDRIDGE
     N. COPERNICUS UNIVERSITY AND JACKSON STATE UNIVERSITY:
          MARIA BARYSZ

 EXECUTION OF GAMESS BEGUN Mon Oct  3 12:59:41 2011

            ECHO OF THE FIRST FEW INPUT CARDS -
 INPUT CARD> $CONTRL RUNTYP=OPTIMIZE COORD=ZMT UNITS=ANGS $END                              
 INPUT CARD> $BASIS  GBASIS=AM1 $END                                                        
 INPUT CARD> $DATA                                                                          
 INPUT CARD>AM1/Fullerene(C60) Optimization                                                 
 INPUT CARD>Cnh 2                                                                           
 INPUT CARD>                                                                                
 INPUT CARD>X70                                                                             
 INPUT CARD>X71   X70   3.50                                                                
 INPUT CARD>X72   X70   3.50    X71    180.00                                               
 INPUT CARD>X73   X70   3.50    X71     63.4349488229221   X72   0.00                       
 INPUT CARD>X77   X70   3.50    X71     63.4349488229221   X73  72.00                       
 INPUT CARD>X76   X70   3.50    X71     63.4349488229221   X73  144.00                      
 INPUT CARD>X75   X70   3.50    X71     63.4349488229221   X73 -144.00                      
 INPUT CARD>X74   X70   3.50    X71     63.4349488229221   X73  -72.00                      
 INPUT CARD>X78   X70   3.50    X71    116.565051177078    X73   36.00                      
 INPUT CARD>X79   X70   3.50    X71    116.565051177078    X73  108.00                      
 INPUT CARD>X80   X70   3.50    X71    116.565051177078    X73  180.00                      
 INPUT CARD>X82   X70   3.50    X71    116.565051177078    X73 -108.00                      
 INPUT CARD>X81   X70   3.50    X71    116.565051177078    X73  -36.00                      
 INPUT CARD>C2    X71   1.236   X70     80.00            X74    0.00                        
 INPUT CARD>C9    X71   1.236   X70     80.00            X74   72.00                        
 INPUT CARD>C18   X71   1.236   X70     80.00            X74  144.00                        
 INPUT CARD>C13   X71   1.236   X70     80.00            X74  -72.00                        
 INPUT CARD>C55   X71   1.236   X70     80.00            X74 -144.00                        
 INPUT CARD>C10   X72   1.236   X70     80.00            X79    0.00                        
 INPUT CARD>C34   X72   1.236   X70     80.00            X79   72.00                        
 INPUT CARD>C44   X72   1.236   X70     80.00            X79  144.00                        
 INPUT CARD>C6    X72   1.236   X70     80.00            X79  -72.00                        
 INPUT CARD>C29   X72   1.236   X70     80.00            X79 -144.00                        
 INPUT CARD>C3    X75   1.236   X70     80.00            X71    0.00                        
 INPUT CARD>C7    X75   1.236   X70     80.00            X71   72.00                        
 INPUT CARD>C22   X75   1.236   X70     80.00            X71  144.00                        
 INPUT CARD>C17   X75   1.236   X70     80.00            X71  -72.00                        
 INPUT CARD>C37   X75   1.236   X70     80.00            X71 -144.00                        
 INPUT CARD>C20   X76   1.236   X70     80.00            X71    0.00                        
 INPUT CARD>C19   X76   1.236   X70     80.00            X71   72.00                        
 INPUT CARD>C38   X76   1.236   X70     80.00            X71  144.00                        
 INPUT CARD>C57   X76   1.236   X70     80.00            X71  -72.00                        
 INPUT CARD>C59   X76   1.236   X70     80.00            X71 -144.00                        
 INPUT CARD>C56   X77   1.236   X70     80.00            X71    0.00                        
 INPUT CARD>C58   X77   1.236   X70     80.00            X71   72.00                        
 INPUT CARD>C28   X77   1.236   X70     80.00            X71  144.00                        
 INPUT CARD>C54   X77   1.236   X70     80.00            X71  -72.00                        
 INPUT CARD>C27   X77   1.236   X70     80.00            X71 -144.00                        
 INPUT CARD>C15   X73   1.236   X70     80.00            X71    0.00                        
 INPUT CARD>C53   X73   1.236   X70     80.00            X71   72.00                        
 INPUT CARD>C51   X73   1.236   X70     80.00            X71  144.00                        
 INPUT CARD>C16   X73   1.236   X70     80.00            X71  -72.00                        
 INPUT CARD>C49   X73   1.236   X70     80.00            X71 -144.00                        
 INPUT CARD>C8    X74   1.236   X70     80.00            X71    0.00                        
    1000000 WORDS OF MEMORY AVAILABLE

     BASIS OPTIONS
     -------------
     GBASIS=AM1          IGAUSS=       0      POLAR=NONE    
     NDFUNC=       0     NFFUNC=       0     DIFFSP=       F
     NPFUNC=       0      DIFFS=       F     BASNAM=        


     RUN TITLE
     ---------
 AM1/Fullerene(C60) Optimization                                                 

 THE POINT GROUP OF THE MOLECULE IS CNH     
 THE ORDER OF THE PRINCIPAL AXIS IS     2

 YOUR FULLY SUBSTITUTED Z-MATRIX IS
 X70 
 X71    1   3.5000000
 X72    1   3.5000000  2  180.0000
 X73    1   3.5000000  2   63.4349  3    0.0000  0
 X77    1   3.5000000  2   63.4349  4   72.0000  0
 X76    1   3.5000000  2   63.4349  4  144.0000  0
 X75    1   3.5000000  2   63.4349  4 -144.0000  0
 X74    1   3.5000000  2   63.4349  4  -72.0000  0
 X78    1   3.5000000  2  116.5651  4   36.0000  0
 X79    1   3.5000000  2  116.5651  4  108.0000  0
 X80    1   3.5000000  2  116.5651  4  180.0000  0
 X82    1   3.5000000  2  116.5651  4 -108.0000  0
 X81    1   3.5000000  2  116.5651  4  -36.0000  0
 C2     2   1.2360000  1   80.0000  8    0.0000  0
 C9     2   1.2360000  1   80.0000  8   72.0000  0
 C18    2   1.2360000  1   80.0000  8  144.0000  0
 C13    2   1.2360000  1   80.0000  8  -72.0000  0
 C55    2   1.2360000  1   80.0000  8 -144.0000  0
 C10    3   1.2360000  1   80.0000 10    0.0000  0
 C34    3   1.2360000  1   80.0000 10   72.0000  0
 C44    3   1.2360000  1   80.0000 10  144.0000  0
 C6     3   1.2360000  1   80.0000 10  -72.0000  0
 C29    3   1.2360000  1   80.0000 10 -144.0000  0
 C3     7   1.2360000  1   80.0000  2    0.0000  0
 C7     7   1.2360000  1   80.0000  2   72.0000  0
 C22    7   1.2360000  1   80.0000  2  144.0000  0
 C17    7   1.2360000  1   80.0000  2  -72.0000  0
 C37    7   1.2360000  1   80.0000  2 -144.0000  0
 C20    6   1.2360000  1   80.0000  2    0.0000  0
 C19    6   1.2360000  1   80.0000  2   72.0000  0
 C38    6   1.2360000  1   80.0000  2  144.0000  0
 C57    6   1.2360000  1   80.0000  2  -72.0000  0
 C59    6   1.2360000  1   80.0000  2 -144.0000  0
 C56    5   1.2360000  1   80.0000  2    0.0000  0
 C58    5   1.2360000  1   80.0000  2   72.0000  0
 C28    5   1.2360000  1   80.0000  2  144.0000  0
 C54    5   1.2360000  1   80.0000  2  -72.0000  0
 C27    5   1.2360000  1   80.0000  2 -144.0000  0
 C15    4   1.2360000  1   80.0000  2    0.0000  0
 C53    4   1.2360000  1   80.0000  2   72.0000  0
 C51    4   1.2360000  1   80.0000  2  144.0000  0
 C16    4   1.2360000  1   80.0000  2  -72.0000  0
 C49    4   1.2360000  1   80.0000  2 -144.0000  0
 C8     8   1.2360000  1   80.0000  2    0.0000  0
 C14    8   1.2360000  1   80.0000  2   72.0000  0
 C47    8   1.2360000  1   80.0000  2  144.0000  0
 C1     8   1.2360000  1   80.0000  2  -72.0000  0
 C21    8   1.2360000  1   80.0000  2 -144.0000  0
 C12    9   1.2360000  1   80.0000  3    0.0000  0
 C30    9   1.2360000  1   80.0000  3   72.0000  0
 C52    9   1.2360000  1   80.0000  3  144.0000  0
 C5     9   1.2360000  1   80.0000  3  -72.0000  0
 C25    9   1.2360000  1   80.0000  3 -144.0000  0
 C4    10   1.2360000  1   80.0000  3    0.0000  0
 C11   10   1.2360000  1   80.0000  3   72.0000  0
 C26   10   1.2360000  1   80.0000  3  144.0000  0
 C33   10   1.2360000  1   80.0000  3  -72.0000  0
 C60   10   1.2360000  1   80.0000  3 -144.0000  0
 C36   11   1.2360000  1   80.0000  3    0.0000  0
 C35   11   1.2360000  1   80.0000  3   72.0000  0
 C40   11   1.2360000  1   80.0000  3  144.0000  0
 C42   11   1.2360000  1   80.0000  3  -72.0000  0
 C39   11   1.2360000  1   80.0000  3 -144.0000  0
 C43   12   1.2360000  1   80.0000  3    0.0000  0
 C41   12   1.2360000  1   80.0000  3   72.0000  0
 C24   12   1.2360000  1   80.0000  3  144.0000  0
 C45   12   1.2360000  1   80.0000  3  -72.0000  0
 C23   12   1.2360000  1   80.0000  3 -144.0000  0
 C31   13   1.2360000  1   80.0000  3    0.0000  0
 C46   13   1.2360000  1   80.0000  3   72.0000  0
 C48   13   1.2360000  1   80.0000  3  144.0000  0
 C32   13   1.2360000  1   80.0000  3  -72.0000  0
 C50   13   1.2360000  1   80.0000  3 -144.0000  0

 THE MOMENTS OF INERTIA ARE (AMU-ANGSTROM**2)
 IXX=  5892.140   IYY=  5892.140   IZZ=  5892.140

 ATOM      ATOMIC                      COORDINATES (BOHR)
           CHARGE         X                   Y                   Z
 C2          6.0    -0.7108060725       -6.2084506791        2.1876361475
 C2          6.0     0.7108060725        6.2084506791       -2.1876361475
 C2          6.0    -0.7108060725       -6.2084506791       -2.1876361475
 C2          6.0     0.7108060725        6.2084506791        2.1876361475
 C9          6.0     1.8609144572       -6.2084506791        1.3520334942
 C9          6.0    -1.8609144572        6.2084506791       -1.3520334942
 C9          6.0     1.8609144572       -6.2084506791       -1.3520334942
 C9          6.0    -1.8609144572        6.2084506791        1.3520334942
 C13         6.0    -2.3002167695       -6.2084506791        0.0000000000
 C13         6.0     2.3002167695        6.2084506791        0.0000000000
 C3          6.0     3.6602508695       -4.8338799745        2.6593279199
 C3          6.0    -3.6602508695        4.8338799745       -2.6593279199
 C3          6.0     3.6602508695       -4.8338799745       -2.6593279199
 C3          6.0    -3.6602508695        4.8338799745        2.6593279199
 C7          6.0     2.9494447970       -3.4122678295        4.8469640674
 C7          6.0    -2.9494447970        3.4122678295       -4.8469640674
 C7          6.0     2.9494447970       -3.4122678295       -4.8469640674
 C7          6.0    -2.9494447970        3.4122678295        4.8469640674
 C22         6.0     4.3710569421       -1.1120510600        4.8469640674
 C22         6.0    -4.3710569421        1.1120510600       -4.8469640674
 C22         6.0     4.3710569421       -1.1120510600       -4.8469640674
 C22         6.0    -4.3710569421        1.1120510600        4.8469640674
 C17         6.0     5.5211653268       -3.4122678295        1.3072944257
 C17         6.0    -5.5211653268        3.4122678295       -1.3072944257
 C17         6.0     5.5211653268       -3.4122678295       -1.3072944257
 C17         6.0    -5.5211653268        3.4122678295        1.3072944257
 C37         6.0     5.9604676390       -1.1120510600        2.6593279199
 C37         6.0    -5.9604676390        1.1120510600       -2.6593279199
 C37         6.0     5.9604676390       -1.1120510600       -2.6593279199
 C37         6.0    -5.9604676390        1.1120510600        2.6593279199
 C56         6.0    -1.3980914248       -4.8338799745       -4.3028829616
 C56         6.0     1.3980914248        4.8338799745        4.3028829616
 C56         6.0    -1.3980914248       -4.8338799745        4.3028829616
 C56         6.0     1.3980914248        4.8338799745       -4.3028829616
 C58         6.0     0.4628230324       -3.4122678295       -5.6549164558
 C58         6.0    -0.4628230324        3.4122678295        5.6549164558
 C58         6.0     0.4628230324       -3.4122678295        5.6549164558
 C58         6.0    -0.4628230324        3.4122678295       -5.6549164558
 C28         6.0    -0.6872853523       -1.1120510600       -6.4905191091
 C28         6.0     0.6872853523        1.1120510600        6.4905191091
 C28         6.0    -0.6872853523       -1.1120510600        6.4905191091
 C28         6.0     0.6872853523        1.1120510600       -6.4905191091
 C54         6.0    -3.6983081943       -3.4122678295       -4.3028829616
 C54         6.0     3.6983081943        3.4122678295        4.3028829616
 C54         6.0    -3.6983081943       -3.4122678295        4.3028829616
 C54         6.0     3.6983081943        3.4122678295       -4.3028829616
 C27         6.0    -3.2590058821       -1.1120510600       -5.6549164558
 C27         6.0     3.2590058821        1.1120510600        5.6549164558
 C27         6.0    -3.2590058821       -1.1120510600        5.6549164558
 C27         6.0     3.2590058821        1.1120510600       -5.6549164558
 C15         6.0    -4.5243188895       -4.8338799745        0.0000000000
 C15         6.0     4.5243188895        4.8338799745        0.0000000000
 C53         6.0    -5.2351249620       -3.4122678295       -2.1876361475
 C53         6.0     5.2351249620        3.4122678295        2.1876361475
 C53         6.0    -5.2351249620       -3.4122678295        2.1876361475
 C53         6.0     5.2351249620        3.4122678295       -2.1876361475
 C51         6.0    -6.3852333467       -1.1120510600       -1.3520334942
 C51         6.0     6.3852333467        1.1120510600        1.3520334942
 C51         6.0    -6.3852333467       -1.1120510600        1.3520334942
 C51         6.0     6.3852333467        1.1120510600       -1.3520334942

          INTERNUCLEAR DISTANCES (ANGS.)
          ------------------------------

                1 C2         2 C2         3 C2         4 C2         5 C9    

   1 C2      0.0000000    7.0072226    2.3152946 *  6.6136661    1.4309307 *
   2 C2      7.0072226    0.0000000    6.6136661    2.3152946 *  6.8595630  
   3 C2      2.3152946 *  6.6136661    0.0000000    7.0072226    2.3152946 *
   4 C2      6.6136661    2.3152946 *  7.0072226    0.0000000    6.6136661  
   5 C9      1.4309307 *  6.8595630    2.3152946 *  6.6136661    0.0000000  
   6 C9      6.8595630    1.4309307 *  6.6136661    2.3152946 *  7.0072226  
   7 C9      2.3152946 *  6.6136661    1.4309307 *  6.8595630    1.4309307 *
   8 C9      6.6136661    2.3152946 *  6.8595630    1.4309307 *  6.8595630  
   9 C13     1.4309307 *  6.8595630    1.4309307 *  6.8595630    2.3152946 *
  10 C13     6.8595630    1.4309307 *  6.8595630    1.4309307 *  6.6136661  
  11 C3      2.4375536 *  6.5695891    3.5296021    6.0533525    1.3835809 *
  12 C3      6.5695891    2.4375536 *  6.0533525    3.5296021    6.8692701  
  13 C3      3.5296021    6.0533525    2.4375536 *  6.5695891    2.4375536 *
  14 C3      6.0533525    3.5296021    6.5695891    2.4375536 *  6.5695891  
  15 C7      2.8145117 *  6.4171405    4.4495492    5.4131949    2.4375536 *
  16 C7      6.4171405    2.8145117 *  5.4131949    4.4495492    6.5695891  
  17 C7      4.4495492    5.4131949    2.8145117 *  6.4171405    3.6444567  
  18 C7      5.4131949    4.4495492    6.4171405    2.8145117 *  5.9849063  
  19 C22     4.0602293    5.7110162    5.3256431    4.5539755    3.5296021  
  20 C22     5.7110162    4.0602293    4.5539755    5.3256431    6.0533525  
  21 C22     5.3256431    4.5539755    4.0602293    5.7110162    4.4495492  
  22 C22     4.5539755    5.3256431    5.7110162    4.0602293    5.4131949  
  23 C17     3.6444567    5.9849063    4.0602293    5.7110162    2.4375536 *
  24 C17     5.9849063    3.6444567    5.7110162    4.0602293    6.5695891  
  25 C17     4.0602293    5.7110162    3.6444567    5.9849063    2.8145117 *
  26 C17     5.7110162    4.0602293    5.9849063    3.6444567    6.4171405  
  27 C37     4.4495492    5.4131949    5.1298062    4.7734952    3.5296021  
  28 C37     5.4131949    4.4495492    4.7734952    5.1298062    6.0533525  
  29 C37     5.1298062    4.7734952    4.4495492    5.4131949    4.0602293  
  30 C37     4.7734952    5.1298062    5.4131949    4.4495492    5.7110162  
  31 C56     3.5296021    6.0533525    1.3835809 *  6.8692701    3.5296021  
  32 C56     6.0533525    3.5296021    6.8692701    1.3835809 *  6.0533525  
  33 C56     1.3835809 *  6.8692701    3.5296021    6.0533525    2.4375536 *
  34 C56     6.8692701    1.3835809 *  6.0533525    3.5296021    6.5695891  
  35 C58     4.4495492    5.4131949    2.4375536 *  6.5695891    4.0602293  
  36 C58     5.4131949    4.4495492    6.5695891    2.4375536 *  5.7110162  
  37 C58     2.4375536 *  6.5695891    4.4495492    5.4131949    2.8145117 *
  38 C58     6.5695891    2.4375536 *  5.4131949    4.4495492    6.4171405  
  39 C28     5.3256431    4.5539755    3.5296021    6.0533525    5.1298062  
  40 C28     4.5539755    5.3256431    6.0533525    3.5296021    4.7734952  
  41 C28     3.5296021    6.0533525    5.3256431    4.5539755    4.0602293  
  42 C28     6.0533525    3.5296021    4.5539755    5.3256431    5.7110162  
  43 C54     4.0602293    5.7110162    2.4375536 *  6.5695891    4.4495492  
  44 C54     5.7110162    4.0602293    6.5695891    2.4375536 *  5.4131949  
  45 C54     2.4375536 *  6.5695891    4.0602293    5.7110162    3.6444567  
  46 C54     6.5695891    2.4375536 *  5.7110162    4.0602293    5.9849063  
  47 C27     5.1298062    4.7734952    3.5296021    6.0533525    5.3256431  
  48 C27     4.7734952    5.1298062    6.0533525    3.5296021    4.5539755  
  49 C27     3.5296021    6.0533525    5.1298062    4.7734952    4.4495492  
  50 C27     6.0533525    3.5296021    4.7734952    5.1298062    5.4131949  
  51 C15     2.4375536 *  6.5695891    2.4375536 *  6.5695891    3.5296021  
  52 C15     6.5695891    2.4375536 *  6.5695891    2.4375536 *  6.0533525  
  53 C53     3.6444567    5.9849063    2.8145117 *  6.4171405    4.4495492  
  54 C53     5.9849063    3.6444567    6.4171405    2.8145117 *  5.4131949  
  55 C53     2.8145117 *  6.4171405    3.6444567    5.9849063    4.0602293  
  56 C53     6.4171405    2.8145117 *  5.9849063    3.6444567    5.7110162  
  57 C51     4.4495492    5.4131949    4.0602293    5.7110162    5.3256431  
  58 C51     5.4131949    4.4495492    5.7110162    4.0602293    4.5539755  
  59 C51     4.0602293    5.7110162    4.4495492    5.4131949    5.1298062  
  60 C51     5.7110162    4.0602293    5.4131949    4.4495492    4.7734952  

                6 C9         7 C9         8 C9         9 C13       10 C13   

   1 C2      6.8595630    2.3152946 *  6.6136661    1.4309307 *  6.8595630  
   2 C2      1.4309307 *  6.6136661    2.3152946 *  6.8595630    1.4309307 *
   3 C2      6.6136661    1.4309307 *  6.8595630    1.4309307 *  6.8595630  
   4 C2      2.3152946 *  6.8595630    1.4309307 *  6.8595630    1.4309307 *
   5 C9      7.0072226    1.4309307 *  6.8595630    2.3152946 *  6.6136661  
   6 C9      0.0000000    6.8595630    1.4309307 *  6.6136661    2.3152946 *
   7 C9      6.8595630    0.0000000    7.0072226    2.3152946 *  6.6136661  
   8 C9      1.4309307 *  7.0072226    0.0000000    6.6136661    2.3152946 *
   9 C13     6.6136661    2.3152946 *  6.6136661    0.0000000    7.0072226  
  10 C13     2.3152946 *  6.6136661    2.3152946 *  7.0072226    0.0000000  
  11 C3      6.8692701    2.4375536 *  6.5695891    3.5296021    6.0533525  
  12 C3      1.3835809 *  6.5695891    2.4375536 *  6.0533525    3.5296021  
  13 C3      6.5695891    1.3835809 *  6.8692701    3.5296021    6.0533525  
  14 C3      2.4375536 *  6.8692701    1.3835809 *  6.0533525    3.5296021  
  15 C7      6.5695891    3.6444567    5.9849063    4.0602293    5.7110162  
  16 C7      2.4375536 *  5.9849063    3.6444567    5.7110162    4.0602293  
  17 C7      5.9849063    2.4375536 *  6.5695891    4.0602293    5.7110162  
  18 C7      3.6444567    6.5695891    2.4375536 *  5.7110162    4.0602293  
  19 C22     6.0533525    4.4495492    5.4131949    5.1298062    4.7734952  
  20 C22     3.5296021    5.4131949    4.4495492    4.7734952    5.1298062  
  21 C22     5.4131949    3.5296021    6.0533525    5.1298062    4.7734952  
  22 C22     4.4495492    6.0533525    3.5296021    4.7734952    5.1298062  
  23 C17     6.5695891    2.8145117 *  6.4171405    4.4495492    5.4131949  
  24 C17     2.4375536 *  6.4171405    2.8145117 *  5.4131949    4.4495492  
  25 C17     6.4171405    2.4375536 *  6.5695891    4.4495492    5.4131949  
  26 C17     2.8145117 *  6.5695891    2.4375536 *  5.4131949    4.4495492  
  27 C37     6.0533525    4.0602293    5.7110162    5.3256431    4.5539755  
  28 C37     3.5296021    5.7110162    4.0602293    4.5539755    5.3256431  
  29 C37     5.7110162    3.5296021    6.0533525    5.3256431    4.5539755  
  30 C37     4.0602293    6.0533525    3.5296021    4.5539755    5.3256431  
  31 C56     6.0533525    2.4375536 *  6.5695891    2.4375536 *  6.5695891  
  32 C56     3.5296021    6.5695891    2.4375536 *  6.5695891    2.4375536 *
  33 C56     6.5695891    3.5296021    6.0533525    2.4375536 *  6.5695891  
  34 C56     2.4375536 *  6.0533525    3.5296021    6.5695891    2.4375536 *
  35 C58     5.7110162    2.8145117 *  6.4171405    3.6444567    5.9849063  
  36 C58     4.0602293    6.4171405    2.8145117 *  5.9849063    3.6444567  
  37 C58     6.4171405    4.0602293    5.7110162    3.6444567    5.9849063  
  38 C58     2.8145117 *  5.7110162    4.0602293    5.9849063    3.6444567  
  39 C28     4.7734952    4.0602293    5.7110162    4.4495492    5.4131949  
  40 C28     5.1298062    5.7110162    4.0602293    5.4131949    4.4495492  
  41 C28     5.7110162    5.1298062    4.7734952    4.4495492    5.4131949  
  42 C28     4.0602293    4.7734952    5.1298062    5.4131949    4.4495492  
  43 C54     5.4131949    3.6444567    5.9849063    2.8145117 *  6.4171405  
  44 C54     4.4495492    5.9849063    3.6444567    6.4171405    2.8145117 *
  45 C54     5.9849063    4.4495492    5.4131949    2.8145117 *  6.4171405  
  46 C54     3.6444567    5.4131949    4.4495492    6.4171405    2.8145117 *
  47 C27     4.5539755    4.4495492    5.4131949    4.0602293    5.7110162  
  48 C27     5.3256431    5.4131949    4.4495492    5.7110162    4.0602293  
  49 C27     5.4131949    5.3256431    4.5539755    4.0602293    5.7110162  
  50 C27     4.4495492    4.5539755    5.3256431    5.7110162    4.0602293  
  51 C15     6.0533525    3.5296021    6.0533525    1.3835809 *  6.8692701  
  52 C15     3.5296021    6.0533525    3.5296021    6.8692701    1.3835809 *
  53 C53     5.4131949    4.0602293    5.7110162    2.4375536 *  6.5695891  
  54 C53     4.4495492    5.7110162    4.0602293    6.5695891    2.4375536 *
  55 C53     5.7110162    4.4495492    5.4131949    2.4375536 *  6.5695891  
  56 C53     4.0602293    5.4131949    4.4495492    6.5695891    2.4375536 *
  57 C51     4.5539755    5.1298062    4.7734952    3.5296021    6.0533525  
  58 C51     5.3256431    4.7734952    5.1298062    6.0533525    3.5296021  
  59 C51     4.7734952    5.3256431    4.5539755    3.5296021    6.0533525  
  60 C51     5.1298062    4.5539755    5.3256431    6.0533525    3.5296021  

               11 C3        12 C3        13 C3        14 C3        15 C7    

   1 C2      2.4375536 *  6.5695891    3.5296021    6.0533525    2.8145117 *
   2 C2      6.5695891    2.4375536 *  6.0533525    3.5296021    6.4171405  
   3 C2      3.5296021    6.0533525    2.4375536 *  6.5695891    4.4495492  
   4 C2      6.0533525    3.5296021    6.5695891    2.4375536 *  5.4131949  
   5 C9      1.3835809 *  6.8692701    2.4375536 *  6.5695891    2.4375536 *
   6 C9      6.8692701    1.3835809 *  6.5695891    2.4375536 *  6.5695891  
   7 C9      2.4375536 *  6.5695891    1.3835809 *  6.8692701    3.6444567  
   8 C9      6.5695891    2.4375536 *  6.8692701    1.3835809 *  5.9849063  
   9 C13     3.5296021    6.0533525    3.5296021    6.0533525    4.0602293  
  10 C13     6.0533525    3.5296021    6.0533525    3.5296021    5.7110162  
  11 C3      0.0000000    7.0072226    2.8145117 *  6.4171405    1.4309307 *
  12 C3      7.0072226    0.0000000    6.4171405    2.8145117 *  6.8595630  
  13 C3      2.8145117 *  6.4171405    0.0000000    7.0072226    4.0602293  
  14 C3      6.4171405    2.8145117 *  7.0072226    0.0000000    5.7110162  
  15 C7      1.4309307 *  6.8595630    4.0602293    5.7110162    0.0000000  
  16 C7      6.8595630    1.4309307 *  5.7110162    4.0602293    7.0072226  
  17 C7      4.0602293    5.7110162    1.4309307 *  6.8595630    5.1298062  
  18 C7      5.7110162    4.0602293    6.8595630    1.4309307 *  4.7734952  
  19 C22     2.3152946 *  6.6136661    4.4495492    5.4131949    1.4309307 *
  20 C22     6.6136661    2.3152946 *  5.4131949    4.4495492    6.8595630  
  21 C22     4.4495492    5.4131949    2.3152946 *  6.6136661    5.3256431  
  22 C22     5.4131949    4.4495492    6.6136661    2.3152946 *  4.5539755  
  23 C17     1.4309307 *  6.8595630    2.4375536 *  6.5695891    2.3152946 *
  24 C17     6.8595630    1.4309307 *  6.5695891    2.4375536 *  6.6136661  
  25 C17     2.4375536 *  6.5695891    1.4309307 *  6.8595630    3.5296021  
  26 C17     6.5695891    2.4375536 *  6.8595630    1.4309307 *  6.0533525  
  27 C37     2.3152946 *  6.6136661    3.6444567    5.9849063    2.3152946 *
  28 C37     6.6136661    2.3152946 *  5.9849063    3.6444567    6.6136661  
  29 C37     3.6444567    5.9849063    2.3152946 *  6.6136661    4.4495492  
  30 C37     5.9849063    3.6444567    6.6136661    2.3152946 *  5.4131949  
  31 C56     4.5539755    5.3256431    2.8145117 *  6.4171405    5.4131949  
  32 C56     5.3256431    4.5539755    6.4171405    2.8145117 *  4.4495492  
  33 C56     2.8145117 *  6.4171405    4.5539755    5.3256431    2.4375536 *
  34 C56     6.4171405    2.8145117 *  5.3256431    4.5539755    6.5695891  
  35 C58     4.7734952    5.1298062    2.4375536 *  6.5695891    5.7110162  
  36 C58     5.1298062    4.7734952    6.5695891    2.4375536 *  4.0602293  
  37 C58     2.4375536 *  6.5695891    4.7734952    5.1298062    1.3835809 *
  38 C58     6.5695891    2.4375536 *  5.1298062    4.7734952    6.8692701  
  39 C28     5.7110162    4.0602293    3.6444567    5.9849063    6.4171405  
  40 C28     4.0602293    5.7110162    5.9849063    3.6444567    2.8145117 *
  41 C28     3.6444567    5.9849063    5.7110162    4.0602293    2.4375536 *
  42 C28     5.9849063    3.6444567    4.0602293    5.7110162    6.5695891  
  43 C54     5.4131949    4.4495492    4.0602293    5.7110162    5.9849063  
  44 C54     4.4495492    5.4131949    5.7110162    4.0602293    3.6444567  
  45 C54     4.0602293    5.7110162    5.4131949    4.4495492    3.5296021  
  46 C54     5.7110162    4.0602293    4.4495492    5.4131949    6.0533525  
  47 C27     6.0533525    3.5296021    4.4495492    5.4131949    6.5695891  
  48 C27     3.5296021    6.0533525    5.4131949    4.4495492    2.4375536 *
  49 C27     4.4495492    5.4131949    6.0533525    3.5296021    3.5296021  
  50 C27     5.4131949    4.4495492    3.5296021    6.0533525    6.0533525  
  51 C15     4.5539755    5.3256431    4.5539755    5.3256431    4.7734952  
  52 C15     5.3256431    4.5539755    5.3256431    4.5539755    5.1298062  
  53 C53     5.4131949    4.4495492    4.7734952    5.1298062    5.7110162  
  54 C53     4.4495492    5.4131949    5.1298062    4.7734952    4.0602293  
  55 C53     4.7734952    5.1298062    5.4131949    4.4495492    4.5539755  
  56 C53     5.1298062    4.7734952    4.4495492    5.4131949    5.3256431  
  57 C51     6.0533525    3.5296021    5.7110162    4.0602293    6.0533525  
  58 C51     3.5296021    6.0533525    4.0602293    5.7110162    3.5296021  
  59 C51     5.7110162    4.0602293    6.0533525    3.5296021    5.4131949  
  60 C51     4.0602293    5.7110162    3.5296021    6.0533525    4.4495492  

               16 C7        17 C7        18 C7        19 C22       20 C22   

   1 C2      6.4171405    4.4495492    5.4131949    4.0602293    5.7110162  
   2 C2      2.8145117 *  5.4131949    4.4495492    5.7110162    4.0602293  
   3 C2      5.4131949    2.8145117 *  6.4171405    5.3256431    4.5539755  
   4 C2      4.4495492    6.4171405    2.8145117 *  4.5539755    5.3256431  
   5 C9      6.5695891    3.6444567    5.9849063    3.5296021    6.0533525  
   6 C9      2.4375536 *  5.9849063    3.6444567    6.0533525    3.5296021  
   7 C9      5.9849063    2.4375536 *  6.5695891    4.4495492    5.4131949  
   8 C9      3.6444567    6.5695891    2.4375536 *  5.4131949    4.4495492  
   9 C13     5.7110162    4.0602293    5.7110162    5.1298062    4.7734952  
  10 C13     4.0602293    5.7110162    4.0602293    4.7734952    5.1298062  
  11 C3      6.8595630    4.0602293    5.7110162    2.3152946 *  6.6136661  
  12 C3      1.4309307 *  5.7110162    4.0602293    6.6136661    2.3152946 *
  13 C3      5.7110162    1.4309307 *  6.8595630    4.4495492    5.4131949  
  14 C3      4.0602293    6.8595630    1.4309307 *  5.4131949    4.4495492  
  15 C7      7.0072226    5.1298062    4.7734952    1.4309307 *  6.8595630  
  16 C7      0.0000000    4.7734952    5.1298062    6.8595630    1.4309307 *
  17 C7      4.7734952    0.0000000    7.0072226    5.3256431    4.5539755  
  18 C7      5.1298062    7.0072226    0.0000000    4.5539755    5.3256431  
  19 C22     6.8595630    5.3256431    4.5539755    0.0000000    7.0072226  
  20 C22     1.4309307 *  4.5539755    5.3256431    7.0072226    0.0000000  
  21 C22     4.5539755    1.4309307 *  6.8595630    5.1298062    4.7734952  
  22 C22     5.3256431    6.8595630    1.4309307 *  4.7734952    5.1298062  
  23 C17     6.6136661    3.5296021    6.0533525    2.3152946 *  6.6136661  
  24 C17     2.3152946 *  6.0533525    3.5296021    6.6136661    2.3152946 *
  25 C17     6.0533525    2.3152946 *  6.6136661    3.5296021    6.0533525  
  26 C17     3.5296021    6.6136661    2.3152946 *  6.0533525    3.5296021  
  27 C37     6.6136661    4.4495492    5.4131949    1.4309307 *  6.8595630  
  28 C37     2.3152946 *  5.4131949    4.4495492    6.8595630    1.4309307 *
  29 C37     5.4131949    2.3152946 *  6.6136661    4.0602293    5.7110162  
  30 C37     4.4495492    6.6136661    2.3152946 *  5.7110162    4.0602293  
  31 C56     4.4495492    2.4375536 *  6.5695891    6.0533525    3.5296021  
  32 C56     5.4131949    6.5695891    2.4375536 *  3.5296021    6.0533525  
  33 C56     6.5695891    5.4131949    4.4495492    3.6444567    5.9849063  
  34 C56     2.4375536 *  4.4495492    5.4131949    5.9849063    3.6444567  
  35 C58     4.0602293    1.3835809 *  6.8692701    6.0533525    3.5296021  
  36 C58     5.7110162    6.8692701    1.3835809 *  3.5296021    6.0533525  
  37 C58     6.8692701    5.7110162    4.0602293    2.4375536 *  6.5695891  
  38 C58     1.3835809 *  4.0602293    5.7110162    6.5695891    2.4375536 *
  39 C28     2.8145117 *  2.4375536 *  6.5695891    6.5695891    2.4375536 *
  40 C28     6.4171405    6.5695891    2.4375536 *  2.4375536 *  6.5695891  
  41 C28     6.5695891    6.4171405    2.8145117 *  2.8145117 *  6.4171405  
  42 C28     2.4375536 *  2.8145117 *  6.4171405    6.4171405    2.8145117 *
  43 C54     3.6444567    3.5296021    6.0533525    6.5695891    2.4375536 *
  44 C54     5.9849063    6.0533525    3.5296021    2.4375536 *  6.5695891  
  45 C54     6.0533525    5.9849063    3.6444567    4.4495492    5.4131949  
  46 C54     3.5296021    3.6444567    5.9849063    5.4131949    4.4495492  
  47 C27     2.4375536 *  3.5296021    6.0533525    6.8692701    1.3835809 *
  48 C27     6.5695891    6.0533525    3.5296021    1.3835809 *  6.8692701  
  49 C27     6.0533525    6.5695891    2.4375536 *  4.0602293    5.7110162  
  50 C27     3.5296021    2.4375536 *  6.5695891    5.7110162    4.0602293  
  51 C15     5.1298062    4.7734952    5.1298062    5.7110162    4.0602293  
  52 C15     4.7734952    5.1298062    4.7734952    4.0602293    5.7110162  
  53 C53     4.0602293    4.5539755    5.3256431    6.4171405    2.8145117 *
  54 C53     5.7110162    5.3256431    4.5539755    2.8145117 *  6.4171405  
  55 C53     5.3256431    5.7110162    4.0602293    5.4131949    4.4495492  
  56 C53     4.5539755    4.0602293    5.7110162    4.4495492    5.4131949  
  57 C51     3.5296021    5.4131949    4.4495492    6.5695891    2.4375536 *
  58 C51     6.0533525    4.4495492    5.4131949    2.4375536 *  6.5695891  
  59 C51     4.4495492    6.0533525    3.5296021    5.9849063    3.6444567  
  60 C51     5.4131949    3.5296021    6.0533525    3.6444567    5.9849063  

               21 C22       22 C22       23 C17       24 C17       25 C17   

   1 C2      5.3256431    4.5539755    3.6444567    5.9849063    4.0602293  
   2 C2      4.5539755    5.3256431    5.9849063    3.6444567    5.7110162  
   3 C2      4.0602293    5.7110162    4.0602293    5.7110162    3.6444567  
   4 C2      5.7110162    4.0602293    5.7110162    4.0602293    5.9849063  
   5 C9      4.4495492    5.4131949    2.4375536 *  6.5695891    2.8145117 *
   6 C9      5.4131949    4.4495492    6.5695891    2.4375536 *  6.4171405  
   7 C9      3.5296021    6.0533525    2.8145117 *  6.4171405    2.4375536 *
   8 C9      6.0533525    3.5296021    6.4171405    2.8145117 *  6.5695891  
   9 C13     5.1298062    4.7734952    4.4495492    5.4131949    4.4495492  
  10 C13     4.7734952    5.1298062    5.4131949    4.4495492    5.4131949  
  11 C3      4.4495492    5.4131949    1.4309307 *  6.8595630    2.4375536 *
  12 C3      5.4131949    4.4495492    6.8595630    1.4309307 *  6.5695891  
  13 C3      2.3152946 *  6.6136661    2.4375536 *  6.5695891    1.4309307 *
  14 C3      6.6136661    2.3152946 *  6.5695891    2.4375536 *  6.8595630  
  15 C7      5.3256431    4.5539755    2.3152946 *  6.6136661    3.5296021  
  16 C7      4.5539755    5.3256431    6.6136661    2.3152946 *  6.0533525  
  17 C7      1.4309307 *  6.8595630    3.5296021    6.0533525    2.3152946 *
  18 C7      6.8595630    1.4309307 *  6.0533525    3.5296021    6.6136661  
  19 C22     5.1298062    4.7734952    2.3152946 *  6.6136661    3.5296021  
  20 C22     4.7734952    5.1298062    6.6136661    2.3152946 *  6.0533525  
  21 C22     0.0000000    7.0072226    3.5296021    6.0533525    2.3152946 *
  22 C22     7.0072226    0.0000000    6.0533525    3.5296021    6.6136661  
  23 C17     3.5296021    6.0533525    0.0000000    7.0072226    1.3835809 *
  24 C17     6.0533525    3.5296021    7.0072226    0.0000000    6.8692701  
  25 C17     2.3152946 *  6.6136661    1.3835809 *  6.8692701    0.0000000  
  26 C17     6.6136661    2.3152946 *  6.8692701    1.3835809 *  7.0072226  
  27 C37     4.0602293    5.7110162    1.4309307 *  6.8595630    2.4375536 *
  28 C37     5.7110162    4.0602293    6.8595630    1.4309307 *  6.5695891  
  29 C37     1.4309307 *  6.8595630    2.4375536 *  6.5695891    1.4309307 *
  30 C37     6.8595630    1.4309307 *  6.5695891    2.4375536 *  6.8595630  
  31 C56     3.6444567    5.9849063    4.7734952    5.1298062    4.0602293  
  32 C56     5.9849063    3.6444567    5.1298062    4.7734952    5.7110162  
  33 C56     6.0533525    3.5296021    4.0602293    5.7110162    4.7734952  
  34 C56     3.5296021    6.0533525    5.7110162    4.0602293    5.1298062  
  35 C58     2.4375536 *  6.5695891    4.5539755    5.3256431    3.5296021  
  36 C58     6.5695891    2.4375536 *  5.3256431    4.5539755    6.0533525  
  37 C58     6.0533525    3.5296021    3.5296021    6.0533525    4.5539755  
  38 C58     3.5296021    6.0533525    6.0533525    3.5296021    5.3256431  
  39 C28     2.8145117 *  6.4171405    5.4131949    4.4495492    4.4495492  
  40 C28     6.4171405    2.8145117 *  4.4495492    5.4131949    5.4131949  
  41 C28     6.5695891    2.4375536 *  4.4495492    5.4131949    5.4131949  
  42 C28     2.4375536 *  6.5695891    5.4131949    4.4495492    4.4495492  
  43 C54     4.4495492    5.4131949    5.7110162    4.0602293    5.1298062  
  44 C54     5.4131949    4.4495492    4.0602293    5.7110162    4.7734952  
  45 C54     6.5695891    2.4375536 *  5.1298062    4.7734952    5.7110162  
  46 C54     2.4375536 *  6.5695891    4.7734952    5.1298062    4.0602293  
  47 C27     4.0602293    5.7110162    6.0533525    3.5296021    5.3256431  
  48 C27     5.7110162    4.0602293    3.5296021    6.0533525    4.5539755  
  49 C27     6.8692701    1.3835809 *  5.3256431    4.5539755    6.0533525  
  50 C27     1.3835809 *  6.8692701    4.5539755    5.3256431    3.5296021  
  51 C15     5.7110162    4.0602293    5.4131949    4.4495492    5.4131949  
  52 C15     4.0602293    5.7110162    4.4495492    5.4131949    4.4495492  
  53 C53     5.4131949    4.4495492    5.9849063    3.6444567    5.7110162  
  54 C53     4.4495492    5.4131949    3.6444567    5.9849063    4.0602293  
  55 C53     6.4171405    2.8145117 *  5.7110162    4.0602293    5.9849063  
  56 C53     2.8145117 *  6.4171405    4.0602293    5.7110162    3.6444567  
  57 C51     5.9849063    3.6444567    6.5695891    2.4375536 *  6.4171405  
  58 C51     3.6444567    5.9849063    2.4375536 *  6.5695891    2.8145117 *
  59 C51     6.5695891    2.4375536 *  6.4171405    2.8145117 *  6.5695891  
  60 C51     2.4375536 *  6.5695891    2.8145117 *  6.4171405    2.4375536 *

               26 C17       27 C37       28 C37       29 C37       30 C37   

   1 C2      5.7110162    4.4495492    5.4131949    5.1298062    4.7734952  
   2 C2      4.0602293    5.4131949    4.4495492    4.7734952    5.1298062  
   3 C2      5.9849063    5.1298062    4.7734952    4.4495492    5.4131949  
   4 C2      3.6444567    4.7734952    5.1298062    5.4131949    4.4495492  
   5 C9      6.4171405    3.5296021    6.0533525    4.0602293    5.7110162  
   6 C9      2.8145117 *  6.0533525    3.5296021    5.7110162    4.0602293  
   7 C9      6.5695891    4.0602293    5.7110162    3.5296021    6.0533525  
   8 C9      2.4375536 *  5.7110162    4.0602293    6.0533525    3.5296021  
   9 C13     5.4131949    5.3256431    4.5539755    5.3256431    4.5539755  
  10 C13     4.4495492    4.5539755    5.3256431    4.5539755    5.3256431  
  11 C3      6.5695891    2.3152946 *  6.6136661    3.6444567    5.9849063  
  12 C3      2.4375536 *  6.6136661    2.3152946 *  5.9849063    3.6444567  
  13 C3      6.8595630    3.6444567    5.9849063    2.3152946 *  6.6136661  
  14 C3      1.4309307 *  5.9849063    3.6444567    6.6136661    2.3152946 *
  15 C7      6.0533525    2.3152946 *  6.6136661    4.4495492    5.4131949  
  16 C7      3.5296021    6.6136661    2.3152946 *  5.4131949    4.4495492  
  17 C7      6.6136661    4.4495492    5.4131949    2.3152946 *  6.6136661  
  18 C7      2.3152946 *  5.4131949    4.4495492    6.6136661    2.3152946 *
  19 C22     6.0533525    1.4309307 *  6.8595630    4.0602293    5.7110162  
  20 C22     3.5296021    6.8595630    1.4309307 *  5.7110162    4.0602293  
  21 C22     6.6136661    4.0602293    5.7110162    1.4309307 *  6.8595630  
  22 C22     2.3152946 *  5.7110162    4.0602293    6.8595630    1.4309307 *
  23 C17     6.8692701    1.4309307 *  6.8595630    2.4375536 *  6.5695891  
  24 C17     1.3835809 *  6.8595630    1.4309307 *  6.5695891    2.4375536 *
  25 C17     7.0072226    2.4375536 *  6.5695891    1.4309307 *  6.8595630  
  26 C17     0.0000000    6.5695891    2.4375536 *  6.8595630    1.4309307 *
  27 C37     6.5695891    0.0000000    7.0072226    2.8145117 *  6.4171405  
  28 C37     2.4375536 *  7.0072226    0.0000000    6.4171405    2.8145117 *
  29 C37     6.8595630    2.8145117 *  6.4171405    0.0000000    7.0072226  
  30 C37     1.4309307 *  6.4171405    2.8145117 *  7.0072226    0.0000000  
  31 C56     5.7110162    5.7110162    4.0602293    4.4495492    5.4131949  
  32 C56     4.0602293    4.0602293    5.7110162    5.4131949    4.4495492  
  33 C56     5.1298062    4.4495492    5.4131949    5.7110162    4.0602293  
  34 C56     4.7734952    5.4131949    4.4495492    4.0602293    5.7110162  
  35 C58     6.0533525    5.4131949    4.4495492    3.5296021    6.0533525  
  36 C58     3.5296021    4.4495492    5.4131949    6.0533525    3.5296021  
  37 C58     5.3256431    3.5296021    6.0533525    5.4131949    4.4495492  
  38 C58     4.5539755    6.0533525    3.5296021    4.4495492    5.4131949  
  39 C28     5.4131949    5.9849063    3.6444567    4.0602293    5.7110162  
  40 C28     4.4495492    3.6444567    5.9849063    5.7110162    4.0602293  
  41 C28     4.4495492    4.0602293    5.7110162    5.9849063    3.6444567  
  42 C28     5.4131949    5.7110162    4.0602293    3.6444567    5.9849063  
  43 C54     4.7734952    6.4171405    2.8145117 *  5.3256431    4.5539755  
  44 C54     5.1298062    2.8145117 *  6.4171405    4.5539755    5.3256431  
  45 C54     4.0602293    5.3256431    4.5539755    6.4171405    2.8145117 *
  46 C54     5.7110162    4.5539755    5.3256431    2.8145117 *  6.4171405  
  47 C27     4.5539755    6.5695891    2.4375536 *  5.1298062    4.7734952  
  48 C27     5.3256431    2.4375536 *  6.5695891    4.7734952    5.1298062  
  49 C27     3.5296021    5.1298062    4.7734952    6.5695891    2.4375536 *
  50 C27     6.0533525    4.7734952    5.1298062    2.4375536 *  6.5695891  
  51 C15     4.4495492    6.0533525    3.5296021    6.0533525    3.5296021  
  52 C15     5.4131949    3.5296021    6.0533525    3.5296021    6.0533525  
  53 C53     4.0602293    6.5695891    2.4375536 *  6.0533525    3.5296021  
  54 C53     5.7110162    2.4375536 *  6.5695891    3.5296021    6.0533525  
  55 C53     3.6444567    6.0533525    3.5296021    6.5695891    2.4375536 *
  56 C53     5.9849063    3.5296021    6.0533525    2.4375536 *  6.5695891  
  57 C51     2.8145117 *  6.8692701    1.3835809 *  6.5695891    2.4375536 *
  58 C51     6.4171405    1.3835809 *  6.8692701    2.4375536 *  6.5695891  
  59 C51     2.4375536 *  6.5695891    2.4375536 *  6.8692701    1.3835809 *
  60 C51     6.5695891    2.4375536 *  6.5695891    1.3835809 *  6.8692701  

               31 C56       32 C56       33 C56       34 C56       35 C58   

   1 C2      3.5296021    6.0533525    1.3835809 *  6.8692701    4.4495492  
   2 C2      6.0533525    3.5296021    6.8692701    1.3835809 *  5.4131949  
   3 C2      1.3835809 *  6.8692701    3.5296021    6.0533525    2.4375536 *
   4 C2      6.8692701    1.3835809 *  6.0533525    3.5296021    6.5695891  
   5 C9      3.5296021    6.0533525    2.4375536 *  6.5695891    4.0602293  
   6 C9      6.0533525    3.5296021    6.5695891    2.4375536 *  5.7110162  
   7 C9      2.4375536 *  6.5695891    3.5296021    6.0533525    2.8145117 *
   8 C9      6.5695891    2.4375536 *  6.0533525    3.5296021    6.4171405  
   9 C13     2.4375536 *  6.5695891    2.4375536 *  6.5695891    3.6444567  
  10 C13     6.5695891    2.4375536 *  6.5695891    2.4375536 *  5.9849063  
  11 C3      4.5539755    5.3256431    2.8145117 *  6.4171405    4.7734952  
  12 C3      5.3256431    4.5539755    6.4171405    2.8145117 *  5.1298062  
  13 C3      2.8145117 *  6.4171405    4.5539755    5.3256431    2.4375536 *
  14 C3      6.4171405    2.8145117 *  5.3256431    4.5539755    6.5695891  
  15 C7      5.4131949    4.4495492    2.4375536 *  6.5695891    5.7110162  
  16 C7      4.4495492    5.4131949    6.5695891    2.4375536 *  4.0602293  
  17 C7      2.4375536 *  6.5695891    5.4131949    4.4495492    1.3835809 *
  18 C7      6.5695891    2.4375536 *  4.4495492    5.4131949    6.8692701  
  19 C22     6.0533525    3.5296021    3.6444567    5.9849063    6.0533525  
  20 C22     3.5296021    6.0533525    5.9849063    3.6444567    3.5296021  
  21 C22     3.6444567    5.9849063    6.0533525    3.5296021    2.4375536 *
  22 C22     5.9849063    3.6444567    3.5296021    6.0533525    6.5695891  
  23 C17     4.7734952    5.1298062    4.0602293    5.7110162    4.5539755  
  24 C17     5.1298062    4.7734952    5.7110162    4.0602293    5.3256431  
  25 C17     4.0602293    5.7110162    4.7734952    5.1298062    3.5296021  
  26 C17     5.7110162    4.0602293    5.1298062    4.7734952    6.0533525  
  27 C37     5.7110162    4.0602293    4.4495492    5.4131949    5.4131949  
  28 C37     4.0602293    5.7110162    5.4131949    4.4495492    4.4495492  
  29 C37     4.4495492    5.4131949    5.7110162    4.0602293    3.5296021  
  30 C37     5.4131949    4.4495492    4.0602293    5.7110162    6.0533525  
  31 C56     0.0000000    7.0072226    4.5539755    5.3256431    1.4309307 *
  32 C56     7.0072226    0.0000000    5.3256431    4.5539755    6.8595630  
  33 C56     4.5539755    5.3256431    0.0000000    7.0072226    5.4131949  
  34 C56     5.3256431    4.5539755    7.0072226    0.0000000    4.4495492  
  35 C58     1.4309307 *  6.8595630    5.4131949    4.4495492    0.0000000  
  36 C58     6.8595630    1.4309307 *  4.4495492    5.4131949    7.0072226  
  37 C58     5.4131949    4.4495492    1.4309307 *  6.8595630    5.9849063  
  38 C58     4.4495492    5.4131949    6.8595630    1.4309307 *  3.6444567  
  39 C28     2.3152946 *  6.6136661    6.0533525    3.5296021    1.4309307 *
  40 C28     6.6136661    2.3152946 *  3.5296021    6.0533525    6.8595630  
  41 C28     6.0533525    3.5296021    2.3152946 *  6.6136661    6.5695891  
  42 C28     3.5296021    6.0533525    6.6136661    2.3152946 *  2.4375536 *
  43 C54     1.4309307 *  6.8595630    4.7734952    5.1298062    2.3152946 *
  44 C54     6.8595630    1.4309307 *  5.1298062    4.7734952    6.6136661  
  45 C54     4.7734952    5.1298062    1.4309307 *  6.8595630    5.7110162  
  46 C54     5.1298062    4.7734952    6.8595630    1.4309307 *  4.0602293  
  47 C27     2.3152946 *  6.6136661    5.7110162    4.0602293    2.3152946 *
  48 C27     6.6136661    2.3152946 *  4.0602293    5.7110162    6.6136661  
  49 C27     5.7110162    4.0602293    2.3152946 *  6.6136661    6.4171405  
  50 C27     4.0602293    5.7110162    6.6136661    2.3152946 *  2.8145117 *
  51 C15     2.8145117 *  6.4171405    2.8145117 *  6.4171405    4.0602293  
  52 C15     6.4171405    2.8145117 *  6.4171405    2.8145117 *  5.7110162  
  53 C53     2.4375536 *  6.5695891    4.0602293    5.7110162    3.5296021  
  54 C53     6.5695891    2.4375536 *  5.7110162    4.0602293    6.0533525  
  55 C53     4.0602293    5.7110162    2.4375536 *  6.5695891    5.1298062  
  56 C53     5.7110162    4.0602293    6.5695891    2.4375536 *  4.7734952  
  57 C51     3.6444567    5.9849063    4.4495492    5.4131949    4.4495492  
  58 C51     5.9849063    3.6444567    5.4131949    4.4495492    5.4131949  
  59 C51     4.4495492    5.4131949    3.6444567    5.9849063    5.3256431  
  60 C51     5.4131949    4.4495492    5.9849063    3.6444567    4.5539755  

               36 C58       37 C58       38 C58       39 C28       40 C28   

   1 C2      5.4131949    2.4375536 *  6.5695891    5.3256431    4.5539755  
   2 C2      4.4495492    6.5695891    2.4375536 *  4.5539755    5.3256431  
   3 C2      6.5695891    4.4495492    5.4131949    3.5296021    6.0533525  
   4 C2      2.4375536 *  5.4131949    4.4495492    6.0533525    3.5296021  
   5 C9      5.7110162    2.8145117 *  6.4171405    5.1298062    4.7734952  
   6 C9      4.0602293    6.4171405    2.8145117 *  4.7734952    5.1298062  
   7 C9      6.4171405    4.0602293    5.7110162    4.0602293    5.7110162  
   8 C9      2.8145117 *  5.7110162    4.0602293    5.7110162    4.0602293  
   9 C13     5.9849063    3.6444567    5.9849063    4.4495492    5.4131949  
  10 C13     3.6444567    5.9849063    3.6444567    5.4131949    4.4495492  
  11 C3      5.1298062    2.4375536 *  6.5695891    5.7110162    4.0602293  
  12 C3      4.7734952    6.5695891    2.4375536 *  4.0602293    5.7110162  
  13 C3      6.5695891    4.7734952    5.1298062    3.6444567    5.9849063  
  14 C3      2.4375536 *  5.1298062    4.7734952    5.9849063    3.6444567  
  15 C7      4.0602293    1.3835809 *  6.8692701    6.4171405    2.8145117 *
  16 C7      5.7110162    6.8692701    1.3835809 *  2.8145117 *  6.4171405  
  17 C7      6.8692701    5.7110162    4.0602293    2.4375536 *  6.5695891  
  18 C7      1.3835809 *  4.0602293    5.7110162    6.5695891    2.4375536 *
  19 C22     3.5296021    2.4375536 *  6.5695891    6.5695891    2.4375536 *
  20 C22     6.0533525    6.5695891    2.4375536 *  2.4375536 *  6.5695891  
  21 C22     6.5695891    6.0533525    3.5296021    2.8145117 *  6.4171405  
  22 C22     2.4375536 *  3.5296021    6.0533525    6.4171405    2.8145117 *
  23 C17     5.3256431    3.5296021    6.0533525    5.4131949    4.4495492  
  24 C17     4.5539755    6.0533525    3.5296021    4.4495492    5.4131949  
  25 C17     6.0533525    4.5539755    5.3256431    4.4495492    5.4131949  
  26 C17     3.5296021    5.3256431    4.5539755    5.4131949    4.4495492  
  27 C37     4.4495492    3.5296021    6.0533525    5.9849063    3.6444567  
  28 C37     5.4131949    6.0533525    3.5296021    3.6444567    5.9849063  
  29 C37     6.0533525    5.4131949    4.4495492    4.0602293    5.7110162  
  30 C37     3.5296021    4.4495492    5.4131949    5.7110162    4.0602293  
  31 C56     6.8595630    5.4131949    4.4495492    2.3152946 *  6.6136661  
  32 C56     1.4309307 *  4.4495492    5.4131949    6.6136661    2.3152946 *
  33 C56     4.4495492    1.4309307 *  6.8595630    6.0533525    3.5296021  
  34 C56     5.4131949    6.8595630    1.4309307 *  3.5296021    6.0533525  
  35 C58     7.0072226    5.9849063    3.6444567    1.4309307 *  6.8595630  
  36 C58     0.0000000    3.6444567    5.9849063    6.8595630    1.4309307 *
  37 C58     3.6444567    0.0000000    7.0072226    6.5695891    2.4375536 *
  38 C58     5.9849063    7.0072226    0.0000000    2.4375536 *  6.5695891  
  39 C28     6.8595630    6.5695891    2.4375536 *  0.0000000    7.0072226  
  40 C28     1.4309307 *  2.4375536 *  6.5695891    7.0072226    0.0000000  
  41 C28     2.4375536 *  1.4309307 *  6.8595630    6.8692701    1.3835809 *
  42 C28     6.5695891    6.8595630    1.4309307 *  1.3835809 *  6.8692701  
  43 C54     6.6136661    5.7110162    4.0602293    2.3152946 *  6.6136661  
  44 C54     2.3152946 *  4.0602293    5.7110162    6.6136661    2.3152946 *
  45 C54     4.0602293    2.3152946 *  6.6136661    6.0533525    3.5296021  
  46 C54     5.7110162    6.6136661    2.3152946 *  3.5296021    6.0533525  
  47 C27     6.6136661    6.4171405    2.8145117 *  1.4309307 *  6.8595630  
  48 C27     2.3152946 *  2.8145117 *  6.4171405    6.8595630    1.4309307 *
  49 C27     2.8145117 *  2.3152946 *  6.6136661    6.5695891    2.4375536 *
  50 C27     6.4171405    6.6136661    2.3152946 *  2.4375536 *  6.5695891  
  51 C15     5.7110162    4.0602293    5.7110162    4.4495492    5.4131949  
  52 C15     4.0602293    5.7110162    4.0602293    5.4131949    4.4495492  
  53 C53     6.0533525    5.1298062    4.7734952    3.5296021    6.0533525  
  54 C53     3.5296021    4.7734952    5.1298062    6.0533525    3.5296021  
  55 C53     4.7734952    3.5296021    6.0533525    5.3256431    4.5539755  
  56 C53     5.1298062    6.0533525    3.5296021    4.5539755    5.3256431  
  57 C51     5.4131949    5.3256431    4.5539755    4.0602293    5.7110162  
  58 C51     4.4495492    4.5539755    5.3256431    5.7110162    4.0602293  
  59 C51     4.5539755    4.4495492    5.4131949    5.1298062    4.7734952  
  60 C51     5.3256431    5.4131949    4.4495492    4.7734952    5.1298062  

               41 C28       42 C28       43 C54       44 C54       45 C54   

   1 C2      3.5296021    6.0533525    4.0602293    5.7110162    2.4375536 *
   2 C2      6.0533525    3.5296021    5.7110162    4.0602293    6.5695891  
   3 C2      5.3256431    4.5539755    2.4375536 *  6.5695891    4.0602293  
   4 C2      4.5539755    5.3256431    6.5695891    2.4375536 *  5.7110162  
   5 C9      4.0602293    5.7110162    4.4495492    5.4131949    3.6444567  
   6 C9      5.7110162    4.0602293    5.4131949    4.4495492    5.9849063  
   7 C9      5.1298062    4.7734952    3.6444567    5.9849063    4.4495492  
   8 C9      4.7734952    5.1298062    5.9849063    3.6444567    5.4131949  
   9 C13     4.4495492    5.4131949    2.8145117 *  6.4171405    2.8145117 *
  10 C13     5.4131949    4.4495492    6.4171405    2.8145117 *  6.4171405  
  11 C3      3.6444567    5.9849063    5.4131949    4.4495492    4.0602293  
  12 C3      5.9849063    3.6444567    4.4495492    5.4131949    5.7110162  
  13 C3      5.7110162    4.0602293    4.0602293    5.7110162    5.4131949  
  14 C3      4.0602293    5.7110162    5.7110162    4.0602293    4.4495492  
  15 C7      2.4375536 *  6.5695891    5.9849063    3.6444567    3.5296021  
  16 C7      6.5695891    2.4375536 *  3.6444567    5.9849063    6.0533525  
  17 C7      6.4171405    2.8145117 *  3.5296021    6.0533525    5.9849063  
  18 C7      2.8145117 *  6.4171405    6.0533525    3.5296021    3.6444567  
  19 C22     2.8145117 *  6.4171405    6.5695891    2.4375536 *  4.4495492  
  20 C22     6.4171405    2.8145117 *  2.4375536 *  6.5695891    5.4131949  
  21 C22     6.5695891    2.4375536 *  4.4495492    5.4131949    6.5695891  
  22 C22     2.4375536 *  6.5695891    5.4131949    4.4495492    2.4375536 *
  23 C17     4.4495492    5.4131949    5.7110162    4.0602293    5.1298062  
  24 C17     5.4131949    4.4495492    4.0602293    5.7110162    4.7734952  
  25 C17     5.4131949    4.4495492    5.1298062    4.7734952    5.7110162  
  26 C17     4.4495492    5.4131949    4.7734952    5.1298062    4.0602293  
  27 C37     4.0602293    5.7110162    6.4171405    2.8145117 *  5.3256431  
  28 C37     5.7110162    4.0602293    2.8145117 *  6.4171405    4.5539755  
  29 C37     5.9849063    3.6444567    5.3256431    4.5539755    6.4171405  
  30 C37     3.6444567    5.9849063    4.5539755    5.3256431    2.8145117 *
  31 C56     6.0533525    3.5296021    1.4309307 *  6.8595630    4.7734952  
  32 C56     3.5296021    6.0533525    6.8595630    1.4309307 *  5.1298062  
  33 C56     2.3152946 *  6.6136661    4.7734952    5.1298062    1.4309307 *
  34 C56     6.6136661    2.3152946 *  5.1298062    4.7734952    6.8595630  
  35 C58     6.5695891    2.4375536 *  2.3152946 *  6.6136661    5.7110162  
  36 C58     2.4375536 *  6.5695891    6.6136661    2.3152946 *  4.0602293  
  37 C58     1.4309307 *  6.8595630    5.7110162    4.0602293    2.3152946 *
  38 C58     6.8595630    1.4309307 *  4.0602293    5.7110162    6.6136661  
  39 C28     6.8692701    1.3835809 *  2.3152946 *  6.6136661    6.0533525  
  40 C28     1.3835809 *  6.8692701    6.6136661    2.3152946 *  3.5296021  
  41 C28     0.0000000    7.0072226    6.0533525    3.5296021    2.3152946 *
  42 C28     7.0072226    0.0000000    3.5296021    6.0533525    6.6136661  
  43 C54     6.0533525    3.5296021    0.0000000    7.0072226    4.5539755  
  44 C54     3.5296021    6.0533525    7.0072226    0.0000000    5.3256431  
  45 C54     2.3152946 *  6.6136661    4.5539755    5.3256431    0.0000000  
  46 C54     6.6136661    2.3152946 *  5.3256431    4.5539755    7.0072226  
  47 C27     6.5695891    2.4375536 *  1.4309307 *  6.8595630    5.4131949  
  48 C27     2.4375536 *  6.5695891    6.8595630    1.4309307 *  4.4495492  
  49 C27     1.4309307 *  6.8595630    5.4131949    4.4495492    1.4309307 *
  50 C27     6.8595630    1.4309307 *  4.4495492    5.4131949    6.8595630  
  51 C15     4.4495492    5.4131949    2.4375536 *  6.5695891    2.4375536 *
  52 C15     5.4131949    4.4495492    6.5695891    2.4375536 *  6.5695891  
  53 C53     5.3256431    4.5539755    1.3835809 *  6.8692701    3.5296021  
  54 C53     4.5539755    5.3256431    6.8692701    1.3835809 *  6.0533525  
  55 C53     3.5296021    6.0533525    3.5296021    6.0533525    1.3835809 *
  56 C53     6.0533525    3.5296021    6.0533525    3.5296021    6.8692701  
  57 C51     5.1298062    4.7734952    2.4375536 *  6.5695891    3.5296021  
  58 C51     4.7734952    5.1298062    6.5695891    2.4375536 *  6.0533525  
  59 C51     4.0602293    5.7110162    3.5296021    6.0533525    2.4375536 *
  60 C51     5.7110162    4.0602293    6.0533525    3.5296021    6.5695891  

               46 C54       47 C27       48 C27       49 C27       50 C27   

   1 C2      6.5695891    5.1298062    4.7734952    3.5296021    6.0533525  
   2 C2      2.4375536 *  4.7734952    5.1298062    6.0533525    3.5296021  
   3 C2      5.7110162    3.5296021    6.0533525    5.1298062    4.7734952  
   4 C2      4.0602293    6.0533525    3.5296021    4.7734952    5.1298062  
   5 C9      5.9849063    5.3256431    4.5539755    4.4495492    5.4131949  
   6 C9      3.6444567    4.5539755    5.3256431    5.4131949    4.4495492  
   7 C9      5.4131949    4.4495492    5.4131949    5.3256431    4.5539755  
   8 C9      4.4495492    5.4131949    4.4495492    4.5539755    5.3256431  
   9 C13     6.4171405    4.0602293    5.7110162    4.0602293    5.7110162  
  10 C13     2.8145117 *  5.7110162    4.0602293    5.7110162    4.0602293  
  11 C3      5.7110162    6.0533525    3.5296021    4.4495492    5.4131949  
  12 C3      4.0602293    3.5296021    6.0533525    5.4131949    4.4495492  
  13 C3      4.4495492    4.4495492    5.4131949    6.0533525    3.5296021  
  14 C3      5.4131949    5.4131949    4.4495492    3.5296021    6.0533525  
  15 C7      6.0533525    6.5695891    2.4375536 *  3.5296021    6.0533525  
  16 C7      3.5296021    2.4375536 *  6.5695891    6.0533525    3.5296021  
  17 C7      3.6444567    3.5296021    6.0533525    6.5695891    2.4375536 *
  18 C7      5.9849063    6.0533525    3.5296021    2.4375536 *  6.5695891  
  19 C22     5.4131949    6.8692701    1.3835809 *  4.0602293    5.7110162  
  20 C22     4.4495492    1.3835809 *  6.8692701    5.7110162    4.0602293  
  21 C22     2.4375536 *  4.0602293    5.7110162    6.8692701    1.3835809 *
  22 C22     6.5695891    5.7110162    4.0602293    1.3835809 *  6.8692701  
  23 C17     4.7734952    6.0533525    3.5296021    5.3256431    4.5539755  
  24 C17     5.1298062    3.5296021    6.0533525    4.5539755    5.3256431  
  25 C17     4.0602293    5.3256431    4.5539755    6.0533525    3.5296021  
  26 C17     5.7110162    4.5539755    5.3256431    3.5296021    6.0533525  
  27 C37     4.5539755    6.5695891    2.4375536 *  5.1298062    4.7734952  
  28 C37     5.3256431    2.4375536 *  6.5695891    4.7734952    5.1298062  
  29 C37     2.8145117 *  5.1298062    4.7734952    6.5695891    2.4375536 *
  30 C37     6.4171405    4.7734952    5.1298062    2.4375536 *  6.5695891  
  31 C56     5.1298062    2.3152946 *  6.6136661    5.7110162    4.0602293  
  32 C56     4.7734952    6.6136661    2.3152946 *  4.0602293    5.7110162  
  33 C56     6.8595630    5.7110162    4.0602293    2.3152946 *  6.6136661  
  34 C56     1.4309307 *  4.0602293    5.7110162    6.6136661    2.3152946 *
  35 C58     4.0602293    2.3152946 *  6.6136661    6.4171405    2.8145117 *
  36 C58     5.7110162    6.6136661    2.3152946 *  2.8145117 *  6.4171405  
  37 C58     6.6136661    6.4171405    2.8145117 *  2.3152946 *  6.6136661  
  38 C58     2.3152946 *  2.8145117 *  6.4171405    6.6136661    2.3152946 *
  39 C28     3.5296021    1.4309307 *  6.8595630    6.5695891    2.4375536 *
  40 C28     6.0533525    6.8595630    1.4309307 *  2.4375536 *  6.5695891  
  41 C28     6.6136661    6.5695891    2.4375536 *  1.4309307 *  6.8595630  
  42 C28     2.3152946 *  2.4375536 *  6.5695891    6.8595630    1.4309307 *
  43 C54     5.3256431    1.4309307 *  6.8595630    5.4131949    4.4495492  
  44 C54     4.5539755    6.8595630    1.4309307 *  4.4495492    5.4131949  
  45 C54     7.0072226    5.4131949    4.4495492    1.4309307 *  6.8595630  
  46 C54     0.0000000    4.4495492    5.4131949    6.8595630    1.4309307 *
  47 C27     4.4495492    0.0000000    7.0072226    5.9849063    3.6444567  
  48 C27     5.4131949    7.0072226    0.0000000    3.6444567    5.9849063  
  49 C27     6.8595630    5.9849063    3.6444567    0.0000000    7.0072226  
  50 C27     1.4309307 *  3.6444567    5.9849063    7.0072226    0.0000000  
  51 C15     6.5695891    3.6444567    5.9849063    3.6444567    5.9849063  
  52 C15     2.4375536 *  5.9849063    3.6444567    5.9849063    3.6444567  
  53 C53     6.0533525    2.4375536 *  6.5695891    4.4495492    5.4131949  
  54 C53     3.5296021    6.5695891    2.4375536 *  5.4131949    4.4495492  
  55 C53     6.8692701    4.4495492    5.4131949    2.4375536 *  6.5695891  
  56 C53     1.3835809 *  5.4131949    4.4495492    6.5695891    2.4375536 *
  57 C51     6.0533525    2.8145117 *  6.4171405    4.0602293    5.7110162  
  58 C51     3.5296021    6.4171405    2.8145117 *  5.7110162    4.0602293  
  59 C51     6.5695891    4.0602293    5.7110162    2.8145117 *  6.4171405  
  60 C51     2.4375536 *  5.7110162    4.0602293    6.4171405    2.8145117 *

               51 C15       52 C15       53 C53       54 C53       55 C53   

   1 C2      2.4375536 *  6.5695891    3.6444567    5.9849063    2.8145117 *
   2 C2      6.5695891    2.4375536 *  5.9849063    3.6444567    6.4171405  
   3 C2      2.4375536 *  6.5695891    2.8145117 *  6.4171405    3.6444567  
   4 C2      6.5695891    2.4375536 *  6.4171405    2.8145117 *  5.9849063  
   5 C9      3.5296021    6.0533525    4.4495492    5.4131949    4.0602293  
   6 C9      6.0533525    3.5296021    5.4131949    4.4495492    5.7110162  
   7 C9      3.5296021    6.0533525    4.0602293    5.7110162    4.4495492  
   8 C9      6.0533525    3.5296021    5.7110162    4.0602293    5.4131949  
   9 C13     1.3835809 *  6.8692701    2.4375536 *  6.5695891    2.4375536 *
  10 C13     6.8692701    1.3835809 *  6.5695891    2.4375536 *  6.5695891  
  11 C3      4.5539755    5.3256431    5.4131949    4.4495492    4.7734952  
  12 C3      5.3256431    4.5539755    4.4495492    5.4131949    5.1298062  
  13 C3      4.5539755    5.3256431    4.7734952    5.1298062    5.4131949  
  14 C3      5.3256431    4.5539755    5.1298062    4.7734952    4.4495492  
  15 C7      4.7734952    5.1298062    5.7110162    4.0602293    4.5539755  
  16 C7      5.1298062    4.7734952    4.0602293    5.7110162    5.3256431  
  17 C7      4.7734952    5.1298062    4.5539755    5.3256431    5.7110162  
  18 C7      5.1298062    4.7734952    5.3256431    4.5539755    4.0602293  
  19 C22     5.7110162    4.0602293    6.4171405    2.8145117 *  5.4131949  
  20 C22     4.0602293    5.7110162    2.8145117 *  6.4171405    4.4495492  
  21 C22     5.7110162    4.0602293    5.4131949    4.4495492    6.4171405  
  22 C22     4.0602293    5.7110162    4.4495492    5.4131949    2.8145117 *
  23 C17     5.4131949    4.4495492    5.9849063    3.6444567    5.7110162  
  24 C17     4.4495492    5.4131949    3.6444567    5.9849063    4.0602293  
  25 C17     5.4131949    4.4495492    5.7110162    4.0602293    5.9849063  
  26 C17     4.4495492    5.4131949    4.0602293    5.7110162    3.6444567  
  27 C37     6.0533525    3.5296021    6.5695891    2.4375536 *  6.0533525  
  28 C37     3.5296021    6.0533525    2.4375536 *  6.5695891    3.5296021  
  29 C37     6.0533525    3.5296021    6.0533525    3.5296021    6.5695891  
  30 C37     3.5296021    6.0533525    3.5296021    6.0533525    2.4375536 *
  31 C56     2.8145117 *  6.4171405    2.4375536 *  6.5695891    4.0602293  
  32 C56     6.4171405    2.8145117 *  6.5695891    2.4375536 *  5.7110162  
  33 C56     2.8145117 *  6.4171405    4.0602293    5.7110162    2.4375536 *
  34 C56     6.4171405    2.8145117 *  5.7110162    4.0602293    6.5695891  
  35 C58     4.0602293    5.7110162    3.5296021    6.0533525    5.1298062  
  36 C58     5.7110162    4.0602293    6.0533525    3.5296021    4.7734952  
  37 C58     4.0602293    5.7110162    5.1298062    4.7734952    3.5296021  
  38 C58     5.7110162    4.0602293    4.7734952    5.1298062    6.0533525  
  39 C28     4.4495492    5.4131949    3.5296021    6.0533525    5.3256431  
  40 C28     5.4131949    4.4495492    6.0533525    3.5296021    4.5539755  
  41 C28     4.4495492    5.4131949    5.3256431    4.5539755    3.5296021  
  42 C28     5.4131949    4.4495492    4.5539755    5.3256431    6.0533525  
  43 C54     2.4375536 *  6.5695891    1.3835809 *  6.8692701    3.5296021  
  44 C54     6.5695891    2.4375536 *  6.8692701    1.3835809 *  6.0533525  
  45 C54     2.4375536 *  6.5695891    3.5296021    6.0533525    1.3835809 *
  46 C54     6.5695891    2.4375536 *  6.0533525    3.5296021    6.8692701  
  47 C27     3.6444567    5.9849063    2.4375536 *  6.5695891    4.4495492  
  48 C27     5.9849063    3.6444567    6.5695891    2.4375536 *  5.4131949  
  49 C27     3.6444567    5.9849063    4.4495492    5.4131949    2.4375536 *
  50 C27     5.9849063    3.6444567    5.4131949    4.4495492    6.5695891  
  51 C15     0.0000000    7.0072226    1.4309307 *  6.8595630    1.4309307 *
  52 C15     7.0072226    0.0000000    6.8595630    1.4309307 *  6.8595630  
  53 C53     1.4309307 *  6.8595630    0.0000000    7.0072226    2.3152946 *
  54 C53     6.8595630    1.4309307 *  7.0072226    0.0000000    6.6136661  
  55 C53     1.4309307 *  6.8595630    2.3152946 *  6.6136661    0.0000000  
  56 C53     6.8595630    1.4309307 *  6.6136661    2.3152946 *  7.0072226  
  57 C51     2.3152946 *  6.6136661    1.4309307 *  6.8595630    2.3152946 *
  58 C51     6.6136661    2.3152946 *  6.8595630    1.4309307 *  6.6136661  
  59 C51     2.3152946 *  6.6136661    2.3152946 *  6.6136661    1.4309307 *
  60 C51     6.6136661    2.3152946 *  6.6136661    2.3152946 *  6.8595630  

               56 C53       57 C51       58 C51       59 C51       60 C51   

   1 C2      6.4171405    4.4495492    5.4131949    4.0602293    5.7110162  
   2 C2      2.8145117 *  5.4131949    4.4495492    5.7110162    4.0602293  
   3 C2      5.9849063    4.0602293    5.7110162    4.4495492    5.4131949  
   4 C2      3.6444567    5.7110162    4.0602293    5.4131949    4.4495492  
   5 C9      5.7110162    5.3256431    4.5539755    5.1298062    4.7734952  
   6 C9      4.0602293    4.5539755    5.3256431    4.7734952    5.1298062  
   7 C9      5.4131949    5.1298062    4.7734952    5.3256431    4.5539755  
   8 C9      4.4495492    4.7734952    5.1298062    4.5539755    5.3256431  
   9 C13     6.5695891    3.5296021    6.0533525    3.5296021    6.0533525  
  10 C13     2.4375536 *  6.0533525    3.5296021    6.0533525    3.5296021  
  11 C3      5.1298062    6.0533525    3.5296021    5.7110162    4.0602293  
  12 C3      4.7734952    3.5296021    6.0533525    4.0602293    5.7110162  
  13 C3      4.4495492    5.7110162    4.0602293    6.0533525    3.5296021  
  14 C3      5.4131949    4.0602293    5.7110162    3.5296021    6.0533525  
  15 C7      5.3256431    6.0533525    3.5296021    5.4131949    4.4495492  
  16 C7      4.5539755    3.5296021    6.0533525    4.4495492    5.4131949  
  17 C7      4.0602293    5.4131949    4.4495492    6.0533525    3.5296021  
  18 C7      5.7110162    4.4495492    5.4131949    3.5296021    6.0533525  
  19 C22     4.4495492    6.5695891    2.4375536 *  5.9849063    3.6444567  
  20 C22     5.4131949    2.4375536 *  6.5695891    3.6444567    5.9849063  
  21 C22     2.8145117 *  5.9849063    3.6444567    6.5695891    2.4375536 *
  22 C22     6.4171405    3.6444567    5.9849063    2.4375536 *  6.5695891  
  23 C17     4.0602293    6.5695891    2.4375536 *  6.4171405    2.8145117 *
  24 C17     5.7110162    2.4375536 *  6.5695891    2.8145117 *  6.4171405  
  25 C17     3.6444567    6.4171405    2.8145117 *  6.5695891    2.4375536 *
  26 C17     5.9849063    2.8145117 *  6.4171405    2.4375536 *  6.5695891  
  27 C37     3.5296021    6.8692701    1.3835809 *  6.5695891    2.4375536 *
  28 C37     6.0533525    1.3835809 *  6.8692701    2.4375536 *  6.5695891  
  29 C37     2.4375536 *  6.5695891    2.4375536 *  6.8692701    1.3835809 *
  30 C37     6.5695891    2.4375536 *  6.5695891    1.3835809 *  6.8692701  
  31 C56     5.7110162    3.6444567    5.9849063    4.4495492    5.4131949  
