          ******************************************************
          *         GAMESS VERSION =  1 OCT 2010 (R1)          *
          *             FROM IOWA STATE UNIVERSITY             *
          * M.W.SCHMIDT, K.K.BALDRIDGE, J.A.BOATZ, S.T.ELBERT, *
          *   M.S.GORDON, J.H.JENSEN, S.KOSEKI, N.MATSUNAGA,   *
          *          K.A.NGUYEN, S.J.SU, T.L.WINDUS,           *
          *       TOGETHER WITH M.DUPUIS, J.A.MONTGOMERY       *
          *         J.COMPUT.CHEM.  14, 1347-1363(1993)        *
          **************** 32 BIT LINUX VERSION ****************

  SINCE 1993, STUDENTS AND POSTDOCS WORKING AT IOWA STATE UNIVERSITY
  AND ALSO IN THEIR VARIOUS JOBS AFTER LEAVING ISU HAVE MADE IMPORTANT
  CONTRIBUTIONS TO THE CODE:
     IVANA ADAMOVIC, CHRISTINE AIKENS, YURI ALEXEEV, POOJA ARORA,
     ANDREY ASADCHEV, ROB BELL, PRADIPTA BANDYOPADHYAY, JONATHAN BENTZ,
     BRETT BODE, GALINA CHABAN, WEI CHEN, CHEOL HO CHOI, PAUL DAY, TIM DUDLEY,
     DMITRI FEDOROV, GRAHAM FLETCHER, MARK FREITAG, KURT GLAESEMANN, DAN KEMP,
     GRANT MERRILL, NORIYUKI MINEZAWA, JONATHAN MULLIN, TAKESHI NAGATA,
     SEAN NEDD, HEATHER NETZLOFF, BOSILJKA NJEGIC, RYAN OLSON, MIKE PAK,
     JIM SHOEMAKER, LYUDMILA SLIPCHENKO, SAROM SOK, JIE SONG,
     TETSUYA TAKETSUGU, SIMON WEBB, SOOHAENG YOO, FEDERICO ZAHARIEV

  ADDITIONAL CODE HAS BEEN PROVIDED BY COLLABORATORS IN OTHER GROUPS:
     IOWA STATE UNIVERSITY:
          JOE IVANIC, LAIMUTIS BYTAUTAS, KLAUS RUEDENBERG
     UNIVERSITY OF TOKYO: KIMIHIKO HIRAO, TAKAHITO NAKAJIMA,
          TAKAO TSUNEDA, MUNEAKI KAMIYA, SUSUMU YANAGISAWA,
          KIYOSHI YAGI, MAHITO CHIBA, SEIKEN TOKURA, NAOAKI KAWAKAMI
     UNIVERSITY OF AARHUS: FRANK JENSEN
     UNIVERSITY OF IOWA: VISVALDAS KAIRYS, HUI LI
     NATIONAL INST. OF STANDARDS AND TECHNOLOGY: WALT STEVENS, DAVID GARMER
     UNIVERSITY OF PISA: BENEDETTA MENNUCCI, JACOPO TOMASI
     UNIVERSITY OF MEMPHIS: HENRY KURTZ, PRAKASHAN KORAMBATH
     UNIVERSITY OF ALBERTA: TOBY ZENG, MARIUSZ KLOBUKOWSKI
     UNIVERSITY OF NEW ENGLAND: MARK SPACKMAN
     MIE UNIVERSITY: HIROAKI UMEDA
     MICHIGAN STATE UNIVERSITY:
          KAROL KOWALSKI, MARTA WLOCH, JEFFREY GOUR, JESSE LUTZ, PIOTR PIECUCH
     UNIVERSITY OF SILESIA: MONIKA MUSIAL, STANISLAW KUCHARSKI
     FACULTES UNIVERSITAIRES NOTRE-DAME DE LA PAIX:
          OLIVIER QUINET, BENOIT CHAMPAGNE
     UNIVERSITY OF CALIFORNIA - SANTA BARBARA: BERNARD KIRTMAN
     INSTITUTE FOR MOLECULAR SCIENCE:
          KAZUYA ISHIMURA, MICHIO KATOUDA, AND SHIGERU NAGASE
     UNIVERSITY OF NOTRE DAME: DAN CHIPMAN
     KYUSHU UNIVERSITY:
          HARUYUKI NAKANO,
          FENG LONG GU, JACEK KORCHOWIEC, MARCIN MAKOWSKI, AND YURIKO AOKI,
          HIROTOSHI MORI AND EISAKU MIYOSHI
     PENNSYLVANIA STATE UNIVERSITY:
          TZVETELIN IORDANOV, CHET SWALINA, JONATHAN SKONE,
          SHARON HAMMES-SCHIFFER
     WASEDA UNIVERSITY:
          MASATO KOBAYASHI, TOMOKO AKAMA, HIROMI NAKAI
     UNIVERSITY OF NEBRASKA:
          PEIFENG SU, DEJUN SI, YALI WANG, HUI LI
     UNIVERSITY OF ZURICH:
          ROBERTO PEVERATI, KIM BALDRIDGE
     N. COPERNICUS UNIVERSITY AND JACKSON STATE UNIVERSITY:
          MARIA BARYSZ

 EXECUTION OF GAMESS BEGUN Mon Oct  3 14:12:08 2011

            ECHO OF THE FIRST FEW INPUT CARDS -
 INPUT CARD> $CONTRL RUNTYP=OPTIMIZE COORD=ZMT UNITS=ANGS $END                              
 INPUT CARD> $BASIS  GBASIS=N31 NGAUSS=6 NDFUNC=1 $END                                      
 INPUT CARD> $DATA                                                                          
 INPUT CARD>6-31g(d)/Formaldehyde optimization                                              
 INPUT CARD>Cnv 2                                                                           
 INPUT CARD>                                                                                
 INPUT CARD>O                                                                               
 INPUT CARD>C 1 1.208                                                                       
 INPUT CARD>H 2 1.116 1 121.8                                                               
 INPUT CARD>H 2 1.116 1 121.8 3 180.0                                                       
 INPUT CARD> $END                                                                           
    1000000 WORDS OF MEMORY AVAILABLE

     BASIS OPTIONS
     -------------
     GBASIS=N31          IGAUSS=       6      POLAR=POPN31  
     NDFUNC=       1     NFFUNC=       0     DIFFSP=       F
     NPFUNC=       0      DIFFS=       F     BASNAM=        


     RUN TITLE
     ---------
 6-31g(d)/Formaldehyde optimization                                              

 THE POINT GROUP OF THE MOLECULE IS CNV     
 THE ORDER OF THE PRINCIPAL AXIS IS     2

 YOUR FULLY SUBSTITUTED Z-MATRIX IS
 O   
 C      1   1.2080000
 H      2   1.1160000  1  121.8000
 H      2   1.1160000  1  121.8000  3  180.0000  0

 THE MOMENTS OF INERTIA ARE (AMU-ANGSTROM**2)
 IXX=    13.077   IYY=    14.891   IZZ=     1.813

 ATOM      ATOMIC                      COORDINATES (BOHR)
           CHARGE         X                   Y                   Z
 O           8.0     0.0000000000        0.0000000000       -1.1407582476
 C           6.0     0.0000000000        0.0000000000        1.1420307456
 H           1.0    -1.7923677685        0.0000000000        2.2533458458
 H           1.0     1.7923677685        0.0000000000        2.2533458458

          INTERNUCLEAR DISTANCES (ANGS.)
          ------------------------------

                1 O          2 C          3 H          4 H     

   1 O       0.0000000    1.2080000 *  2.0311395 *  2.0311395 *
   2 C       1.2080000 *  0.0000000    1.1160000 *  1.1160000 *
   3 H       2.0311395 *  1.1160000 *  0.0000000    1.8969605 *
   4 H       2.0311395 *  1.1160000 *  1.8969605 *  0.0000000  

  * ... LESS THAN  3.000


     ATOMIC BASIS SET
     ----------------
 THE CONTRACTED PRIMITIVE FUNCTIONS HAVE BEEN UNNORMALIZED
 THE CONTRACTED BASIS FUNCTIONS ARE NOW NORMALIZED TO UNITY

  SHELL TYPE  PRIMITIVE        EXPONENT          CONTRACTION COEFFICIENT(S)

 O         

      1   S       1          5484.6716600    0.001831074430
      1   S       2           825.2349460    0.013950172200
      1   S       3           188.0469580    0.068445078098
      1   S       4            52.9645000    0.232714335992
      1   S       5            16.8975704    0.470192897984
      1   S       6             5.7996353    0.358520852987

      2   L       7            15.5396162   -0.110777549525    0.070874268231
      2   L       8             3.5999336   -0.148026262701    0.339752839147
      2   L       9             1.0137618    1.130767015354    0.727158577316

      3   L      10             0.2700058    1.000000000000    1.000000000000

      4   D      11             0.8000000    1.000000000000

 C         

      5   S      12          3047.5248800    0.001834737132
      5   S      13           457.3695180    0.014037322813
      5   S      14           103.9486850    0.068842622264
      5   S      15            29.2101553    0.232184443216
      5   S      16             9.2866630    0.467941348435
      5   S      17             3.1639270    0.362311985337

      6   L      18             7.8682723   -0.119332419775    0.068999066591
      6   L      19             1.8812885   -0.160854151696    0.316423960957
      6   L      20             0.5442493    1.143456437840    0.744308290898

      7   L      21             0.1687145    1.000000000000    1.000000000000

      8   D      22             0.8000000    1.000000000000

 H         

     11   S      23            18.7311370    0.033494604338
     11   S      24             2.8253944    0.234726953484
     11   S      25             0.6401217    0.813757326146

     12   S      26             0.1612778    1.000000000000

 TOTAL NUMBER OF BASIS SET SHELLS             =   12
 NUMBER OF CARTESIAN GAUSSIAN BASIS FUNCTIONS =   34
 NUMBER OF ELECTRONS                          =   16
 CHARGE OF MOLECULE                           =    0
 SPIN MULTIPLICITY                            =    1
 NUMBER OF OCCUPIED ORBITALS (ALPHA)          =    8
 NUMBER OF OCCUPIED ORBITALS (BETA )          =    8
 TOTAL NUMBER OF ATOMS                        =    4
 THE NUCLEAR REPULSION ENERGY IS       31.1644643461

     $CONTRL OPTIONS
     ---------------
 SCFTYP=RHF          RUNTYP=OPTIMIZE     EXETYP=RUN     
 MPLEVL=       0     CITYP =NONE         CCTYP =NONE         VBTYP =NONE    
 DFTTYP=NONE         TDDFT =NONE    
 MULT  =       1     ICHARG=       0     NZVAR =       0     COORD =ZMT     
 PP    =NONE         RELWFN=NONE         LOCAL =NONE         NUMGRD=       F
 ISPHER=      -1     NOSYM =       0     MAXIT =      30     UNITS =ANGS    
 PLTORB=       F     MOLPLT=       F     AIMPAC=       F     FRIEND=        
 NPRINT=       7     IREST =       0     GEOM  =INPUT   
 NORMF =       0     NORMP =       0     ITOL  =      20     ICUT  =       9
 INTTYP=BEST         GRDTYP=BEST         QMTTOL= 1.0E-06

     $SYSTEM OPTIONS
     ---------------
  REPLICATED MEMORY=     1000000 WORDS (ON EVERY NODE).
 DISTRIBUTED MEMDDI=           0 MILLION WORDS IN AGGREGATE,
 MEMDDI DISTRIBUTED OVER   1 PROCESSORS IS           0 WORDS/PROCESSOR.
 TOTAL MEMORY REQUESTED ON EACH PROCESSOR=     1000000 WORDS.
 TIMLIM=      525600.00 MINUTES, OR     365.0 DAYS.
 PARALL= F  BALTYP=  DLB     KDIAG=    0  COREFL= F
 MXSEQ2=     300 MXSEQ3=     150

          ----------------
          PROPERTIES INPUT
          ----------------

     MOMENTS            FIELD           POTENTIAL          DENSITY
 IEMOM =       1   IEFLD =       0   IEPOT =       0   IEDEN =       0
 WHERE =COMASS     WHERE =NUCLEI     WHERE =NUCLEI     WHERE =NUCLEI  
 OUTPUT=BOTH       OUTPUT=BOTH       OUTPUT=BOTH       OUTPUT=BOTH    
 IEMINT=       0   IEFINT=       0                     IEDINT=       0
                                                       MORB  =       0
          EXTRAPOLATION IN EFFECT
          SOSCF IN EFFECT
 ORBITAL PRINTING OPTION: NPREO=     1    34     2     1

     -------------------------------
     INTEGRAL TRANSFORMATION OPTIONS
     -------------------------------
     NWORD  =            0
     CUTOFF = 1.0E-09     MPTRAN =       0
     DIRTRF =       F     AOINTS =DUP     

          ----------------------
          INTEGRAL INPUT OPTIONS
          ----------------------
 NOPK  =       1 NORDER=       0 SCHWRZ=       F

   --- ENCODED Z MATRIX ---
 COORD  TYPE   I   J   K   L   M   N
    1      1    2   1
    2      1    4   2
    3      2    4   2   1
    4      1    3   2
    5      2    3   2   1
    6      3    3   2   1   4

 THE DETERMINANT OF THE G MATRIX IS 10**(    -2)

     ------------------------------------------
     THE POINT GROUP IS CNV, NAXIS= 2, ORDER= 4
     ------------------------------------------

     DIMENSIONS OF THE SYMMETRY SUBSPACES ARE
 A1  =   18     A2  =    2     B1  =    8     B2  =    6

 ..... DONE SETTING UP THE RUN .....
 STEP CPU TIME =     0.00 TOTAL CPU TIME =        0.0 (    0.0 MIN)
 TOTAL WALL CLOCK TIME=        0.0 SECONDS, CPU UTILIZATION IS   0.00%


          -----------------------------
          STATIONARY POINT LOCATION RUN
          -----------------------------

 OBTAINING INITIAL HESSIAN, HESS=GUESS   
 CARTESIAN COORDINATE OPTIMIZATION USING BADGER'S RULE FORCE CONSTANT GUESS

          PARAMETERS CONTROLLING GEOMETRY SEARCH ARE
          METHOD =QA                  UPHESS =BFGS    
          NNEG   =         0          NFRZ   =         0
          NSTEP  =        50          IFOLOW =         1
          HESS   =GUESS               RESTAR =         F
          IHREP  =         0          HSSEND =         F
          NPRT   =         0          NPUN   =         0
          OPTTOL = 1.000E-04          RMIN   = 1.500E-03
          RMAX   = 1.000E-01          RLIM   = 7.000E-02
          DXMAX  = 3.000E-01          PURIFY =         F
          MOVIE  =         F          TRUPD  =         T
          TRMAX  = 5.000E-01          TRMIN  = 5.000E-02
          ITBMAT =         5          STPT   =         F
          STSTEP = 1.000E-02          PROJCT=          T

 BEGINNING GEOMETRY SEARCH POINT NSERCH=   0 ...

 COORDINATES OF SYMMETRY UNIQUE ATOMS (ANGS)
   ATOM   CHARGE       X              Y              Z
 ------------------------------------------------------------
 O           8.0   0.0000000000   0.0000000000  -0.6036633115
 C           6.0   0.0000000000   0.0000000000   0.6043366885
 H           1.0   0.9484802454   0.0000000000   1.1924193563
 COORDINATES OF ALL ATOMS ARE (ANGS)
   ATOM   CHARGE       X              Y              Z
 ------------------------------------------------------------
 O           8.0   0.0000000000   0.0000000000  -0.6036633115
 C           6.0   0.0000000000   0.0000000000   0.6043366885
 H           1.0  -0.9484802454   0.0000000000   1.1924193563
 H           1.0   0.9484802454   0.0000000000   1.1924193563

 THE CURRENT FULLY SUBSTITUTED Z-MATRIX IS
 O   
 C      1   1.2080000
 H      2   1.1160000  1   121.8000000
 H      2   1.1160000  1   121.8000000  3   180.0000000  0

          ********************
          1 ELECTRON INTEGRALS
          ********************
 ...... END OF ONE-ELECTRON INTEGRALS ......
 STEP CPU TIME =     0.00 TOTAL CPU TIME =        0.0 (    0.0 MIN)
 TOTAL WALL CLOCK TIME=        0.0 SECONDS, CPU UTILIZATION IS   0.00%

          -------------
          GUESS OPTIONS
          -------------
          GUESS =HUCKEL            NORB  =       0          NORDER=       0
          MIX   =       F          PRTMO =       F          PUNMO =       F
          TOLZ  = 1.0E-08          TOLE  = 1.0E-05
          SYMDEN=       F          PURIFY=       F

 INITIAL GUESS ORBITALS GENERATED BY HUCKEL   ROUTINE.
 HUCKEL GUESS REQUIRES     12016 WORDS.

 SYMMETRIES FOR INITIAL GUESS ORBITALS FOLLOW.   BOTH SET(S).
     8 ORBITALS ARE OCCUPIED (    2 CORE ORBITALS).
     3=A1       4=A1       5=B1       6=B2       7=A1       8=B1       9=B2  
    10=B1      11=A1      12=A1      13=A1      14=A1      15=A1      16=A1  
    17=A1      18=A1  
 ...... END OF INITIAL ORBITAL SELECTION ......
 STEP CPU TIME =     0.00 TOTAL CPU TIME =        0.0 (    0.0 MIN)
 TOTAL WALL CLOCK TIME=        0.0 SECONDS, CPU UTILIZATION IS   0.00%

                    ----------------------
                    AO INTEGRAL TECHNOLOGY
                    ----------------------
     S,P,L SHELL ROTATED AXIS INTEGRALS, REPROGRAMMED BY
        KAZUYA ISHIMURA (IMS) AND JOSE SIERRA (SYNSTAR).
     S,P,D,L SHELL ROTATED AXIS INTEGRALS PROGRAMMED BY
        KAZUYA ISHIMURA (INSTITUTE FOR MOLECULAR SCIENCE).
     S,P,D,F,G SHELL TO TOTAL QUARTET ANGULAR MOMENTUM SUM 5,
        ERIC PROGRAM BY GRAHAM FLETCHER (ELORET AND NASA ADVANCED
        SUPERCOMPUTING DIVISION, AMES RESEARCH CENTER).
     S,P,D,F,G,L SHELL GENERAL RYS QUADRATURE PROGRAMMED BY
        MICHEL DUPUIS (PACIFIC NORTHWEST NATIONAL LABORATORY).

          --------------------
          2 ELECTRON INTEGRALS
          --------------------

 THE -PK- OPTION IS OFF, THE INTEGRALS ARE NOT IN SUPERMATRIX FORM.
 STORING   15000 INTEGRALS/RECORD ON DISK, USING 12 BYTES/INTEGRAL.
 TWO ELECTRON INTEGRAL EVALUATION REQUIRES   90474 WORDS OF MEMORY.
 II,JST,KST,LST =  1  1  1  1 NREC =         1 INTLOC =    1
 II,JST,KST,LST =  2  1  1  1 NREC =         1 INTLOC =    2
 II,JST,KST,LST =  3  1  1  1 NREC =         1 INTLOC =   34
 II,JST,KST,LST =  4  1  1  1 NREC =         1 INTLOC =  214
 II,JST,KST,LST =  5  1  1  1 NREC =         1 INTLOC = 1189
 II,JST,KST,LST =  6  1  1  1 NREC =         1 INTLOC = 1866
 II,JST,KST,LST =  7  1  1  1 NREC =         1 INTLOC = 5596
 II,JST,KST,LST =  8  1  1  1 NREC =         1 INTLOC =12130
 II,JST,KST,LST =  9  1  1  1 NREC =         2 INTLOC =13697
 II,JST,KST,LST = 10  1  1  1 NREC =         2 INTLOC =13697
 II,JST,KST,LST = 11  1  1  1 NREC =         2 INTLOC =13697
 II,JST,KST,LST = 12  1  1  1 NREC =         3 INTLOC = 7606
 TOTAL NUMBER OF NONZERO TWO-ELECTRON INTEGRALS =               48519
          4 INTEGRAL RECORDS WERE STORED ON DISK FILE  8.
  ...... END OF TWO-ELECTRON INTEGRALS .....
 STEP CPU TIME =     0.04 TOTAL CPU TIME =        0.0 (    0.0 MIN)
 TOTAL WALL CLOCK TIME=        0.1 SECONDS, CPU UTILIZATION IS  80.00%

          --------------------------
                 RHF SCF CALCULATION
          --------------------------

     NUCLEAR ENERGY =        31.1644643461
     MAXIT =   30     NPUNCH=    2
     EXTRAP=T  DAMP=F  SHIFT=F  RSTRCT=F  DIIS=F  DEM=F  SOSCF=T
     DENSITY MATRIX CONV=  1.00E-05
     SOSCF WILL OPTIMIZE     208 ORBITAL ROTATIONS, SOGTOL=   0.250
     MEMORY REQUIRED FOR RHF ITERS=     39400 WORDS.

 ITER EX DEM     TOTAL ENERGY        E CHANGE  DENSITY CHANGE     ORB. GRAD
   1  0  0     -113.5214728425  -113.5214728425   0.242098509   0.000000000
          ---------------START SECOND ORDER SCF---------------
   2  1  0     -113.8342229167    -0.3127500742   0.134608705   0.065786056
   3  2  0     -113.8514770042    -0.0172540874   0.048987596   0.050152342
   4  3  0     -113.8640971795    -0.0126201753   0.011330538   0.004867287
   5  4  0     -113.8643444093    -0.0002472298   0.004102093   0.002002031
   6  5  0     -113.8643862390    -0.0000418297   0.002283447   0.000907969
   7  6  0     -113.8643933482    -0.0000071092   0.000603601   0.000174824
   8  7  0     -113.8643939670    -0.0000006189   0.000183508   0.000073506
   9  8  0     -113.8643940183    -0.0000000512   0.000034336   0.000013570
  10  9  0     -113.8643940200    -0.0000000017   0.000006762   0.000002290
  11 10  0     -113.8643940201    -0.0000000001   0.000001119   0.000000522

          -----------------
          DENSITY CONVERGED
          -----------------
     TIME TO FORM FOCK OPERATORS=       0.0 SECONDS (       0.0 SEC/ITER)
     TIME TO SOLVE SCF EQUATIONS=       0.0 SECONDS (       0.0 SEC/ITER)

 FINAL RHF ENERGY IS     -113.8643940201 AFTER  11 ITERATIONS

          ------------
          EIGENVECTORS
          ------------

                      1          2          3          4          5
                  -20.5856   -11.3463    -1.4024    -0.8640    -0.6874
                     A1         A1         A1         A1         B1  
    1  O  1  S    0.994707  -0.000402  -0.196959   0.088096   0.000000
    2  O  1  S    0.020961   0.000263   0.441902  -0.201274   0.000000
    3  O  1  X    0.000000   0.000000  -0.000000  -0.000000   0.345994
    4  O  1  Y    0.000000   0.000000  -0.000000  -0.000000   0.000000
    5  O  1  Z    0.001581   0.000301   0.138364   0.150598   0.000000
    6  O  1  S    0.004463  -0.000810   0.374329  -0.272936   0.000000
    7  O  1  X    0.000000   0.000000  -0.000000  -0.000000   0.195874
    8  O  1  Y    0.000000   0.000000  -0.000000  -0.000000   0.000000
    9  O  1  Z   -0.000009  -0.001151   0.045790   0.070812   0.000000
   10  O  1 XX   -0.003860  -0.000099  -0.000746  -0.004001   0.000000
   11  O  1 YY   -0.004198   0.000136  -0.000121  -0.000180   0.000000
   12  O  1 ZZ   -0.003525  -0.000148   0.019693   0.008931   0.000000
   13  O  1 XY    0.000000   0.000000  -0.000000  -0.000000   0.000000
   14  O  1 XZ    0.000000   0.000000  -0.000000  -0.000000   0.024901
   15  O  1 YZ    0.000000   0.000000  -0.000000  -0.000000   0.000000
   16  C  2  S    0.000001   0.995692  -0.111147  -0.161746   0.000000
   17  C  2  S    0.000449   0.026551   0.211226   0.337561   0.000000
   18  C  2  X    0.000000   0.000000  -0.000000  -0.000000   0.408575
   19  C  2  Y    0.000000   0.000000  -0.000000  -0.000000   0.000000
   20  C  2  Z    0.000123  -0.000723  -0.178444   0.181000   0.000000
   21  C  2  S   -0.000297  -0.007139   0.079859   0.321626   0.000000
   22  C  2  X    0.000000   0.000000  -0.000000  -0.000000   0.160574
   23  C  2  Y    0.000000   0.000000  -0.000000  -0.000000   0.000000
   24  C  2  Z    0.000516  -0.001507   0.012479   0.082120   0.000000
   25  C  2 XX   -0.000056  -0.002085  -0.014963   0.028082   0.000000
   26  C  2 YY   -0.000008  -0.002650  -0.016778  -0.013126   0.000000
   27  C  2 ZZ   -0.000794  -0.001123   0.033726   0.001000   0.000000
   28  C  2 XY    0.000000   0.000000  -0.000000  -0.000000   0.000000
   29  C  2 XZ    0.000000   0.000000  -0.000000  -0.000000   0.011121
   30  C  2 YZ    0.000000   0.000000  -0.000000  -0.000000   0.000000
   31  H  3  S   -0.000016  -0.000165   0.027082   0.175069  -0.180166
   32  H  3  S   -0.000136   0.002038  -0.005978   0.065864  -0.118005
   33  H  4  S   -0.000016  -0.000165   0.027082   0.175069   0.180166
   34  H  4  S   -0.000136   0.002038  -0.005978   0.065864   0.118005

                      6          7          8          9         10
                   -0.6458    -0.5309    -0.4369     0.1380     0.2406
                     A1         B2         B1         B2         A1  
    1  O  1  S    0.069947   0.000000  -0.000000   0.000000   0.002740
    2  O  1  S   -0.155304   0.000000  -0.000000   0.000000  -0.018551
    3  O  1  X    0.000000   0.000000   0.548434   0.000000   0.000000
    4  O  1  Y    0.000000   0.493494  -0.000000  -0.380038   0.000000
    5  O  1  Z    0.507518   0.000000  -0.000000   0.000000  -0.063717
    6  O  1  S   -0.323914   0.000000  -0.000000   0.000000   0.067465
    7  O  1  X    0.000000   0.000000   0.433475   0.000000   0.000000
    8  O  1  Y    0.000000   0.352873  -0.000000  -0.530823   0.000000
    9  O  1  Z    0.283938   0.000000  -0.000000   0.000000  -0.071870
   10  O  1 XX   -0.007723   0.000000  -0.000000   0.000000  -0.009134
   11  O  1 YY   -0.005364   0.000000  -0.000000   0.000000   0.002124
   12  O  1 ZZ    0.034795   0.000000  -0.000000   0.000000  -0.002047
   13  O  1 XY    0.000000   0.000000  -0.000000   0.000000   0.000000
   14  O  1 XZ    0.000000   0.000000   0.018727   0.000000   0.000000
   15  O  1 YZ    0.000000   0.042049  -0.000000  -0.003354   0.000000
   16  C  2  S   -0.019036   0.000000  -0.000000   0.000000  -0.124751
   17  C  2  S    0.061524   0.000000  -0.000000   0.000000   0.152470
   18  C  2  X    0.000000   0.000000  -0.203095   0.000000   0.000000
   19  C  2  Y    0.000000   0.325476  -0.000000   0.402799   0.000000
   20  C  2  Z   -0.375908   0.000000  -0.000000   0.000000   0.215415
   21  C  2  S   -0.049439   0.000000  -0.000000   0.000000   1.913832
   22  C  2  X    0.000000   0.000000  -0.058433   0.000000   0.000000
   23  C  2  Y    0.000000   0.205743  -0.000000   0.718652   0.000000
   24  C  2  Z   -0.086402   0.000000  -0.000000   0.000000   0.722182
   25  C  2 XX   -0.027532   0.000000  -0.000000   0.000000  -0.011166
   26  C  2 YY   -0.005773   0.000000  -0.000000   0.000000  -0.001566
   27  C  2 ZZ    0.017751   0.000000  -0.000000   0.000000  -0.006525
   28  C  2 XY    0.000000   0.000000  -0.000000   0.000000   0.000000
   29  C  2 XZ    0.000000   0.000000  -0.062249   0.000000   0.000000
   30  C  2 YZ    0.000000  -0.036544  -0.000000   0.032470   0.000000
   31  H  3  S   -0.093024   0.000000   0.189211   0.000000  -0.052753
   32  H  3  S   -0.074995   0.000000   0.238430   0.000000  -1.421197
   33  H  4  S   -0.093024   0.000000  -0.189211   0.000000  -0.052753
   34  H  4  S   -0.074995   0.000000  -0.238430   0.000000  -1.421197

                     11         12         13         14         15
                    0.3311     0.3733     0.7335     0.8267     0.8395
                     B1         A1         B2         A1         B1  
    1  O  1  S   -0.000000  -0.109037  -0.000000   0.017606   0.000000
    2  O  1  S   -0.000000   0.027561  -0.000000  -0.274449   0.000000
    3  O  1  X    0.142165   0.000000  -0.000000   0.000000  -0.321140
    4  O  1  Y   -0.000000   0.000000  -0.008718   0.000000   0.000000
    5  O  1  Z   -0.000000   0.145102  -0.000000  -0.027172   0.000000
    6  O  1  S   -0.000000   2.332431  -0.000000   0.263742   0.000000
    7  O  1  X    0.409868   0.000000  -0.000000   0.000000  -0.267204
    8  O  1  Y   -0.000000   0.000000  -0.085850   0.000000   0.000000
    9  O  1  Z   -0.000000   0.946305  -0.000000  -0.216332   0.000000
   10  O  1 XX   -0.000000  -0.082961  -0.000000  -0.096478   0.000000
   11  O  1 YY   -0.000000  -0.085207  -0.000000  -0.046781   0.000000
   12  O  1 ZZ   -0.000000   0.001696  -0.000000  -0.054117   0.000000
   13  O  1 XY   -0.000000   0.000000  -0.000000   0.000000   0.000000
   14  O  1 XZ   -0.005488   0.000000  -0.000000   0.000000  -0.034600
   15  O  1 YZ   -0.000000   0.000000  -0.089317   0.000000   0.000000
   16  C  2  S   -0.000000   0.047240  -0.000000  -0.071009   0.000000
   17  C  2  S   -0.000000   0.011667  -0.000000  -0.768478   0.000000
   18  C  2  X   -0.446763   0.000000  -0.000000   0.000000  -0.772146
   19  C  2  Y   -0.000000   0.000000  -1.071003   0.000000   0.000000
   20  C  2  Z   -0.000000   0.058190  -0.000000  -0.413590   0.000000
   21  C  2  S   -0.000000  -1.761428  -0.000000   2.041134   0.000000
   22  C  2  X   -1.549221   0.000000  -0.000000   0.000000   2.299965
   23  C  2  Y   -0.000000   0.000000   1.103980   0.000000   0.000000
   24  C  2  Z   -0.000000   2.058637  -0.000000   0.861733   0.000000
   25  C  2 XX   -0.000000  -0.014674  -0.000000  -0.213399   0.000000
   26  C  2 YY   -0.000000  -0.002158  -0.000000   0.057124   0.000000
   27  C  2 ZZ   -0.000000  -0.003657  -0.000000  -0.104599   0.000000
   28  C  2 XY   -0.000000   0.000000  -0.000000   0.000000   0.000000
   29  C  2 XZ   -0.006396   0.000000  -0.000000   0.000000  -0.064989
   30  C  2 YZ   -0.000000   0.000000   0.015574   0.000000   0.000000
   31  H  3  S    0.024549  -0.004482  -0.000000  -0.577884   0.348469
   32  H  3  S   -1.709843  -0.135427  -0.000000  -0.318135   0.882120
   33  H  4  S   -0.024549  -0.004482  -0.000000  -0.577884  -0.348469
   34  H  4  S    1.709843  -0.135427  -0.000000  -0.318135  -0.882120

                     16         17         18         19         20
                    0.9607     1.0736     1.0940     1.1217     1.2687
                     A1         B1         A1         A1         B2  
    1  O  1  S   -0.052887   0.000000  -0.016990   0.017125   0.000000
    2  O  1  S    0.201512   0.000000  -0.450287   0.385308   0.000000
    3  O  1  X    0.000000   0.153616   0.000000   0.000000   0.000000
    4  O  1  Y    0.000000   0.000000   0.000000   0.000000  -0.976565
    5  O  1  Z    0.284663   0.000000   0.670965  -0.305905   0.000000
    6  O  1  S   -0.140973   0.000000   0.570163  -0.956287   0.000000
    7  O  1  X    0.000000  -0.073960   0.000000   0.000000   0.000000
    8  O  1  Y    0.000000   0.000000   0.000000   0.000000   1.228013
    9  O  1  Z    0.515241   0.000000  -1.020907   0.341812   0.000000
   10  O  1 XX    0.090517   0.000000  -0.167859   0.140909   0.000000
   11  O  1 YY    0.100605   0.000000  -0.165616   0.163024   0.000000
   12  O  1 ZZ   -0.181584   0.000000  -0.318354   0.198742   0.000000
   13  O  1 XY    0.000000   0.000000   0.000000   0.000000   0.000000
   14  O  1 XZ    0.000000  -0.137466   0.000000   0.000000   0.000000
   15  O  1 YZ    0.000000   0.000000   0.000000   0.000000  -0.044038
   16  C  2  S    0.037761   0.000000   0.073672  -0.003427   0.000000
   17  C  2  S   -0.859168   0.000000  -0.439120  -1.274108   0.000000
   18  C  2  X    0.000000  -0.758303   0.000000   0.000000   0.000000
   19  C  2  Y    0.000000   0.000000   0.000000   0.000000   0.085902
   20  C  2  Z    0.916213   0.000000  -0.313270  -0.425321   0.000000
   21  C  2  S    0.592794   0.000000   1.415923   2.626066   0.000000
   22  C  2  X    0.000000   1.023479   0.000000   0.000000   0.000000
   23  C  2  Y    0.000000   0.000000   0.000000   0.000000  -0.459214
   24  C  2  Z   -0.513816   0.000000   0.275975   0.523649   0.000000
   25  C  2 XX   -0.148719   0.000000  -0.032165   0.064446   0.000000
   26  C  2 YY   -0.077621   0.000000  -0.167945  -0.101341   0.000000
   27  C  2 ZZ    0.121355   0.000000   0.246593  -0.242107   0.000000
   28  C  2 XY    0.000000   0.000000   0.000000   0.000000   0.000000
   29  C  2 XZ    0.000000   0.206267   0.000000   0.000000   0.000000
   30  C  2 YZ    0.000000   0.000000   0.000000   0.000000   0.065711
   31  H  3  S   -0.121342  -0.729677   0.355303   0.489781   0.000000
   32  H  3  S    0.020738   1.223244  -0.676196  -1.161172   0.000000
   33  H  4  S   -0.121342   0.729677   0.355303   0.489781   0.000000
   34  H  4  S    0.020738  -1.223244  -0.676196  -1.161172   0.000000

                     21         22         23         24         25
                    1.3334     1.6233     1.7804     1.7992     1.9724
                     B1         A1         A2         B2         A1  
    1  O  1  S   -0.000000  -0.103797   0.000000  -0.000000   0.009902
    2  O  1  S   -0.000000  -1.705486   0.000000  -0.000000   0.196412
    3  O  1  X    0.869048   0.000000   0.000000  -0.000000  -0.000000
    4  O  1  Y   -0.000000   0.000000   0.000000   0.178951  -0.000000
    5  O  1  Z   -0.000000  -0.331652   0.000000  -0.000000   0.011113
    6  O  1  S   -0.000000   5.249040   0.000000  -0.000000  -0.629773
    7  O  1  X   -1.496807   0.000000   0.000000  -0.000000  -0.000000
    8  O  1  Y   -0.000000   0.000000   0.000000   0.087616  -0.000000
    9  O  1  Z   -0.000000   1.860705   0.000000  -0.000000  -0.233259
   10  O  1 XX   -0.000000  -0.353331   0.000000  -0.000000   0.711697
   11  O  1 YY   -0.000000  -0.431747   0.000000  -0.000000  -0.681005
   12  O  1 ZZ   -0.000000  -0.578956   0.000000  -0.000000   0.076286
   13  O  1 XY   -0.000000   0.000000   0.489803  -0.000000  -0.000000
   14  O  1 XZ    0.106610   0.000000   0.000000  -0.000000  -0.000000
   15  O  1 YZ   -0.000000   0.000000   0.000000  -0.528192  -0.000000
   16  C  2  S   -0.000000  -0.032163   0.000000  -0.000000  -0.027857
   17  C  2  S   -0.000000  -0.053825   0.000000  -0.000000  -0.167746
   18  C  2  X   -0.286836   0.000000   0.000000  -0.000000  -0.000000
   19  C  2  Y   -0.000000   0.000000   0.000000   0.224789  -0.000000
   20  C  2  Z   -0.000000   0.176274   0.000000  -0.000000  -0.023344
   21  C  2  S   -0.000000  -2.751260   0.000000  -0.000000   0.974215
   22  C  2  X    1.557077   0.000000   0.000000  -0.000000  -0.000000
   23  C  2  Y   -0.000000   0.000000   0.000000  -0.132816  -0.000000
   24  C  2  Z   -0.000000   1.730276   0.000000  -0.000000   0.012739
   25  C  2 XX   -0.000000   0.249013   0.000000  -0.000000   0.394698
   26  C  2 YY   -0.000000  -0.008456   0.000000  -0.000000  -0.495457
   27  C  2 ZZ   -0.000000  -0.239847   0.000000  -0.000000   0.050104
   28  C  2 XY   -0.000000   0.000000   0.813039  -0.000000  -0.000000
   29  C  2 XZ   -0.176494   0.000000   0.000000  -0.000000  -0.000000
   30  C  2 YZ   -0.000000   0.000000   0.000000   0.678918  -0.000000
   31  H  3  S    0.109675   0.094074   0.000000  -0.000000  -0.295448
   32  H  3  S    0.656056  -0.041818   0.000000  -0.000000  -0.144013
   33  H  4  S   -0.109675   0.094074   0.000000  -0.000000  -0.295448
   34  H  4  S   -0.656056  -0.041818   0.000000  -0.000000  -0.144013

                     26         27         28         29         30
                    2.1607     2.2417     2.4410     2.6377     2.8822
                     B1         A2         A1         A1         B2  
    1  O  1  S   -0.000000   0.000000  -0.000361  -0.004534   0.000000
    2  O  1  S   -0.000000   0.000000   0.002033  -0.601851   0.000000
    3  O  1  X    0.291298   0.000000   0.000000  -0.000000   0.000000
    4  O  1  Y   -0.000000   0.000000   0.000000  -0.000000   0.007719
    5  O  1  Z   -0.000000   0.000000   0.162522  -0.679562   0.000000
    6  O  1  S   -0.000000   0.000000   0.293170   0.396349   0.000000
    7  O  1  X   -0.487186   0.000000   0.000000  -0.000000   0.000000
    8  O  1  Y   -0.000000   0.000000   0.000000  -0.000000   0.472366
    9  O  1  Z   -0.000000   0.000000   0.037645   0.414115   0.000000
   10  O  1 XX   -0.000000   0.000000   0.596056  -0.091140   0.000000
   11  O  1 YY   -0.000000   0.000000  -0.423972  -0.347270   0.000000
   12  O  1 ZZ   -0.000000   0.000000  -0.089377   0.006908   0.000000
   13  O  1 XY   -0.000000   0.880798   0.000000  -0.000000   0.000000
   14  O  1 XZ   -0.684246   0.000000   0.000000  -0.000000   0.000000
   15  O  1 YZ   -0.000000   0.000000   0.000000  -0.000000   1.046013
   16  C  2  S   -0.000000   0.000000   0.061759  -0.065119   0.000000
   17  C  2  S   -0.000000   0.000000   0.073599   0.025869   0.000000
   18  C  2  X    0.296426   0.000000   0.000000  -0.000000   0.000000
   19  C  2  Y   -0.000000   0.000000   0.000000  -0.000000  -0.283794
   20  C  2  Z   -0.000000   0.000000  -0.018251  -0.138447   0.000000
   21  C  2  S   -0.000000   0.000000  -0.781273   0.003749   0.000000
   22  C  2  X    0.811148   0.000000   0.000000  -0.000000   0.000000
   23  C  2  Y   -0.000000   0.000000   0.000000  -0.000000  -0.270899
   24  C  2  Z   -0.000000   0.000000   0.014492  -0.335494   0.000000
   25  C  2 XX   -0.000000   0.000000  -0.529807  -0.883899   0.000000
   26  C  2 YY   -0.000000   0.000000   0.987093  -0.333795   0.000000
   27  C  2 ZZ   -0.000000   0.000000  -0.239452   0.952452   0.000000
   28  C  2 XY   -0.000000  -0.595550   0.000000  -0.000000   0.000000
   29  C  2 XZ    0.537362   0.000000   0.000000  -0.000000   0.000000
   30  C  2 YZ   -0.000000   0.000000   0.000000  -0.000000   0.967924
   31  H  3  S    0.592186   0.000000   0.397720   0.258513   0.000000
   32  H  3  S    0.117634   0.000000   0.034014  -0.033308   0.000000
   33  H  4  S   -0.592186   0.000000   0.397720   0.258513   0.000000
   34  H  4  S   -0.117634   0.000000   0.034014  -0.033308   0.000000

                     31         32         33         34
                    2.9947     3.2873     4.1023     4.4641
                     B1         A1         A1         A1  
    1  O  1  S    0.000000  -0.055242  -0.509372  -0.037060
    2  O  1  S    0.000000  -0.647477  -0.030553   0.055524
    3  O  1  X    0.050772   0.000000   0.000000  -0.000000
    4  O  1  Y    0.000000   0.000000   0.000000  -0.000000
    5  O  1  Z    0.000000   0.329246  -0.262973   0.263510
    6  O  1  S    0.000000   2.881407   5.087208   0.649104
    7  O  1  X    0.406027   0.000000   0.000000  -0.000000
    8  O  1  Y    0.000000   0.000000   0.000000  -0.000000
    9  O  1  Z    0.000000   1.748802   1.011154   0.450270
   10  O  1 XX    0.000000  -0.701707  -1.735922  -0.148259
   11  O  1 YY    0.000000  -0.722735  -1.746153  -0.190864
   12  O  1 ZZ    0.000000   1.495655  -1.545302   0.239057
   13  O  1 XY    0.000000   0.000000   0.000000  -0.000000
   14  O  1 XZ    0.960588   0.000000   0.000000  -0.000000
   15  O  1 YZ    0.000000   0.000000   0.000000  -0.000000
   16  C  2  S    0.000000  -0.053799   0.011581  -0.470432
   17  C  2  S    0.000000  -1.300404  -0.211364   2.952194
   18  C  2  X   -0.138863   0.000000   0.000000  -0.000000
   19  C  2  Y    0.000000   0.000000   0.000000  -0.000000
   20  C  2  Z    0.000000   1.372400  -0.083312   0.298061
   21  C  2  S    0.000000  -1.381483  -1.799760   1.060899
   22  C  2  X   -0.288272   0.000000   0.000000  -0.000000
   23  C  2  Y    0.000000   0.000000   0.000000  -0.000000
   24  C  2  Z    0.000000   0.761829   0.987071   0.419707
   25  C  2 XX    0.000000   0.274650   0.078835  -1.778328
   26  C  2 YY    0.000000   0.356950   0.168904  -1.712536
   27  C  2 ZZ    0.000000  -0.767307   0.208463  -2.149886
   28  C  2 XY    0.000000   0.000000   0.000000  -0.000000
   29  C  2 XZ    1.115255   0.000000   0.000000  -0.000000
   30  C  2 YZ    0.000000   0.000000   0.000000  -0.000000
   31  H  3  S    0.351008   0.056393   0.076717   0.182296
   32  H  3  S   -0.284879  -0.014131   0.003180  -0.436289
   33  H  4  S   -0.351008   0.056393   0.076717   0.182296
   34  H  4  S    0.284879  -0.014131   0.003180  -0.436289
 ...... END OF RHF CALCULATION ......
 STEP CPU TIME =     0.03 TOTAL CPU TIME =        0.1 (    0.0 MIN)
 TOTAL WALL CLOCK TIME=        0.1 SECONDS, CPU UTILIZATION IS 100.00%

     ----------------------------------------------------------------
     PROPERTY VALUES FOR THE RHF   SELF-CONSISTENT FIELD WAVEFUNCTION
     ----------------------------------------------------------------

          -----------------
          ENERGY COMPONENTS
          -----------------

         WAVEFUNCTION NORMALIZATION =       1.0000000000

                ONE ELECTRON ENERGY =    -217.0589467167
                TWO ELECTRON ENERGY =      72.0300883505
           NUCLEAR REPULSION ENERGY =      31.1644643461
                                      ------------------
                       TOTAL ENERGY =    -113.8643940201

 ELECTRON-ELECTRON POTENTIAL ENERGY =      72.0300883505
  NUCLEUS-ELECTRON POTENTIAL ENERGY =    -330.5195258824
   NUCLEUS-NUCLEUS POTENTIAL ENERGY =      31.1644643461
                                      ------------------
             TOTAL POTENTIAL ENERGY =    -227.3249731858
               TOTAL KINETIC ENERGY =     113.4605791657
                 VIRIAL RATIO (V/T) =       2.0035590763

  ...... PI ENERGY ANALYSIS ......

 ENERGY ANALYSIS:
            FOCK ENERGY=    -72.9987656886
          BARE H ENERGY=   -217.0589467167
     ELECTRONIC ENERGY =   -145.0288562026
         KINETIC ENERGY=    113.4605791657
          N-N REPULSION=     31.1644643461
           TOTAL ENERGY=   -113.8643918566
        SIGMA PART(1+2)=   -135.8860197713
               (K,V1,2)=    109.9876924011   -309.8227687169     63.9490565445
           PI PART(1+2)=     -9.1428364313
               (K,V1,2)=      3.4728867646    -20.6967571655      8.0810339695
  SIGMA SKELETON, ERROR=   -104.7215554252     -0.0000000000
             MIXED PART= 0.00000E+00 0.00000E+00 0.00000E+00 0.00000E+00
 ...... END OF PI ENERGY ANALYSIS ......

          ---------------------------------------
          MULLIKEN AND LOWDIN POPULATION ANALYSES
          ---------------------------------------

     ATOMIC MULLIKEN POPULATION IN EACH MOLECULAR ORBITAL

                      1          2          3          4          5

                  2.000000   2.000000   2.000000   2.000000   2.000000

    1             2.000240  -0.000496   1.496060   0.371906   0.608964
    2            -0.000233   1.999737   0.499841   1.126468   0.884370
    3            -0.000003   0.000379   0.002049   0.250813   0.253333
    4            -0.000003   0.000379   0.002049   0.250813   0.253333

                      6          7          8

                  2.000000   2.000000   2.000000

    1             1.360051   1.318587   1.271972
    2             0.481856   0.681413   0.193128
    3             0.079047   0.000000   0.267450
    4             0.079047   0.000000   0.267450

               ----- POPULATIONS IN EACH AO -----
                             MULLIKEN      LOWDIN
              1  O  1  S      1.99561     1.97792
              2  O  1  S      0.92164     0.71812
              3  O  1  X      1.16017     1.12249
              4  O  1  Y      0.72931     0.68498
              5  O  1  Z      0.92499     0.86133
              6  O  1  S      0.92955     0.47462
              7  O  1  X      0.71408     0.72896
              8  O  1  Y      0.57450     0.58990
              9  O  1  Z      0.43108     0.53634
             10  O  1 XX      0.00382     0.17150
             11  O  1 YY      0.00184     0.17015
             12  O  1 ZZ      0.01924     0.19658
             13  O  1 XY      0.00000     0.00000
             14  O  1 XZ      0.00669     0.01478
             15  O  1 YZ      0.01479     0.01646
             16  C  2  S      1.99662     1.97655
             17  C  2  S      0.69189     0.36779
             18  C  2  X      0.73034     0.63253
             19  C  2  Y      0.38984     0.35772
             20  C  2  Z      0.73003     0.65649
             21  C  2  S      0.53218     0.34590
             22  C  2  X      0.29697     0.44719
             23  C  2  Y      0.27471     0.32339
             24  C  2  Z      0.11153     0.28229
             25  C  2 XX      0.02573     0.17064
             26  C  2 YY     -0.02424     0.10013
             27  C  2 ZZ      0.04394     0.21504
             28  C  2 XY      0.00000     0.00000
             29  C  2 XZ      0.05018     0.10139
             30  C  2 YZ      0.01686     0.02755
             31  H  3  S      0.52942     0.48988
             32  H  3  S      0.32365     0.37576
             33  H  4  S      0.52942     0.48988
             34  H  4  S      0.32365     0.37576

          ----- MULLIKEN ATOMIC OVERLAP POPULATIONS -----
          (OFF-DIAGONAL ELEMENTS NEED TO BE MULTIPLIED BY 2)

             1           2           3           4

    1    8.0029578
    2    0.5271418   4.5985560
    3   -0.0514077   0.3704412   0.6012235
    4   -0.0514077   0.3704412  -0.0671890   0.6012235

          TOTAL MULLIKEN AND LOWDIN ATOMIC POPULATIONS
       ATOM         MULL.POP.    CHARGE          LOW.POP.     CHARGE
    1 O             8.427284   -0.427284         8.264142   -0.264142
    2 C             5.866580    0.133420         6.004577   -0.004577
    3 H             0.853068    0.146932         0.865641    0.134359
    4 H             0.853068    0.146932         0.865641    0.134359

          -------------------------------
          BOND ORDER AND VALENCE ANALYSIS     BOND ORDER THRESHOLD=0.050
          -------------------------------

                   BOND                       BOND                       BOND
  ATOM PAIR DIST  ORDER      ATOM PAIR DIST  ORDER      ATOM PAIR DIST  ORDER
    1   2  1.208  1.922        2   3  1.116  0.910        2   4  1.116  0.910

                       TOTAL       BONDED        FREE
      ATOM            VALENCE     VALENCE     VALENCE
    1 O                 1.948       1.948       0.000
    2 C                 3.742       3.742      -0.000
    3 H                 0.927       0.927      -0.000
    4 H                 0.927       0.927      -0.000

          ---------------------
          ELECTROSTATIC MOMENTS
          ---------------------

 POINT   1           X           Y           Z (BOHR)    CHARGE
                 0.000000    0.000000   -0.000000        0.00 (A.U.)
         DX          DY          DZ         /D/  (DEBYE)
     0.000000    0.000000    2.762021    2.762021
 ...... END OF PROPERTY EVALUATION ......
 STEP CPU TIME =     0.00 TOTAL CPU TIME =        0.1 (    0.0 MIN)
 TOTAL WALL CLOCK TIME=        0.1 SECONDS, CPU UTILIZATION IS 100.00%

 BEGINNING ONE ELECTRON GRADIENT...
 ..... END OF 1-ELECTRON GRADIENT ......
 STEP CPU TIME =     0.00 TOTAL CPU TIME =        0.1 (    0.0 MIN)
 TOTAL WALL CLOCK TIME=        0.1 SECONDS, CPU UTILIZATION IS  87.50%

          ----------------------
          GRADIENT OF THE ENERGY
          ----------------------

 THE MINIMUM MEMORY REQUIRED FOR THIS RUN IS      75885 WORDS.
 USING     987765 WORDS FOR 2E- DERIVATIVE INTEGRAL CONTRIBUTIONS.
 THE COARSE/FINE SCHWARZ SCREENINGS SKIPPED            0/           0 BLOCKS.
 THE NUMBER OF GRADIENT INTEGRAL BLOCKS COMPUTED WAS      1805
 ...... END OF 2-ELECTRON GRADIENT ......
 STEP CPU TIME =     0.06 TOTAL CPU TIME =        0.1 (    0.0 MIN)
 TOTAL WALL CLOCK TIME=        0.1 SECONDS, CPU UTILIZATION IS  92.86%

          NSERCH=  0     ENERGY=    -113.8643940

                                 -----------------------
                                 GRADIENT (HARTREE/BOHR)
                                 -----------------------
        ATOM     ZNUC       DE/DX         DE/DY         DE/DZ
 --------------------------------------------------------------
   1  O            8.0     0.0000000     0.0000000    -0.0477861
   2  C            6.0     0.0000000     0.0000000     0.0301846
   3  H            1.0    -0.0153681     0.0000000     0.0088008
   4  H            1.0     0.0153681     0.0000000     0.0088008

          MAXIMUM GRADIENT =  0.0477861    RMS GRADIENT = 0.0178463
          FORCE CONSTANT MATRIX NOT UPDATED --- TAKING FIRST STEP
          MIN SEARCH, CORRECT HESSIAN, TRYING PURE NR STEP
               NR STEP HAS LENGTH         =   0.110230
          RADIUS OF STEP TAKEN=   0.11023  CURRENT TRUST RADIUS=   0.30000

 BEGINNING GEOMETRY SEARCH POINT NSERCH=   1 ...

 COORDINATES OF SYMMETRY UNIQUE ATOMS (ANGS)
   ATOM   CHARGE       X              Y              Z
 ------------------------------------------------------------
 O           8.0  -0.0000000000   0.0000000000  -0.5838476977
 C           6.0   0.0000000000   0.0000000000   0.5833759480
 H           1.0   0.9126345161   0.0000000000   1.1929919196
 COORDINATES OF ALL ATOMS ARE (ANGS)
   ATOM   CHARGE       X              Y              Z
 ------------------------------------------------------------
 O           8.0  -0.0000000000   0.0000000000  -0.5838476977
 C           6.0   0.0000000000   0.0000000000   0.5833759480
 H           1.0  -0.9126345161   0.0000000000   1.1929919196
 H           1.0   0.9126345161   0.0000000000   1.1929919196

 THE CURRENT FULLY SUBSTITUTED Z-MATRIX IS
 O   
 C      1   1.1672236
 H      2   1.0975124  1   123.7418865
 H      2   1.0975124  1   123.7418865  3   180.0000000  0

          INTERNUCLEAR DISTANCES (ANGS.)
          ------------------------------

                1 O          2 C          3 H          4 H     

   1 O       0.0000000    1.1672236 *  1.9975137 *  1.9975137 *
   2 C       1.1672236 *  0.0000000    1.0975124 *  1.0975124 *
   3 H       1.9975137 *  1.0975124 *  0.0000000    1.8252690 *
   4 H       1.9975137 *  1.0975124 *  1.8252690 *  0.0000000  

  * ... LESS THAN  3.000

 ...... END OF ONE-ELECTRON INTEGRALS ......
 STEP CPU TIME =     0.00 TOTAL CPU TIME =        0.1 (    0.0 MIN)
 TOTAL WALL CLOCK TIME=        0.1 SECONDS, CPU UTILIZATION IS  92.86%
 TOTAL NUMBER OF NONZERO TWO-ELECTRON INTEGRALS =               48521
          4 INTEGRAL RECORDS WERE STORED ON DISK FILE  8.
  ...... END OF TWO-ELECTRON INTEGRALS .....
 STEP CPU TIME =     0.02 TOTAL CPU TIME =        0.2 (    0.0 MIN)
 TOTAL WALL CLOCK TIME=        0.2 SECONDS, CPU UTILIZATION IS 100.00%

          --------------------------
                 RHF SCF CALCULATION
          --------------------------
     DENSITY MATRIX CONV=  5.00E-05

 ITER EX DEM     TOTAL ENERGY        E CHANGE  DENSITY CHANGE     ORB. GRAD
          ---------------START SECOND ORDER SCF---------------
   1  0  0     -113.8640862197  -113.8640862197   0.014690368   0.010646342
   2  1  0     -113.8653881955    -0.0013019758   0.006369687   0.003800243
   3  2  0     -113.8655024328    -0.0001142373   0.001602047   0.001036430
   4  3  0     -113.8655082252    -0.0000057924   0.000625854   0.000436685
   5  4  0     -113.8655098821    -0.0000016569   0.000214275   0.000068291
   6  5  0     -113.8655099359    -0.0000000539   0.000087150   0.000027649
   7  6  0     -113.8655099438    -0.0000000079   0.000018667   0.000008471
   8  7  0     -113.8655099444    -0.0000000006   0.000006688   0.000002819

          -----------------
          DENSITY CONVERGED
          -----------------
     TIME TO FORM FOCK OPERATORS=       0.0 SECONDS (       0.0 SEC/ITER)
     TIME TO SOLVE SCF EQUATIONS=       0.0 SECONDS (       0.0 SEC/ITER)

 FINAL RHF ENERGY IS     -113.8655099444 AFTER   8 ITERATIONS
 ...... END OF RHF CALCULATION ......
 STEP CPU TIME =     0.01 TOTAL CPU TIME =        0.2 (    0.0 MIN)
 TOTAL WALL CLOCK TIME=        0.2 SECONDS, CPU UTILIZATION IS  94.12%
 ..... END OF 1-ELECTRON GRADIENT ......
 STEP CPU TIME =     0.00 TOTAL CPU TIME =        0.2 (    0.0 MIN)
 TOTAL WALL CLOCK TIME=        0.2 SECONDS, CPU UTILIZATION IS  94.12%
 ...... END OF 2-ELECTRON GRADIENT ......
 STEP CPU TIME =     0.07 TOTAL CPU TIME =        0.2 (    0.0 MIN)
 TOTAL WALL CLOCK TIME=        0.2 SECONDS, CPU UTILIZATION IS 100.00%

          NSERCH=  1     ENERGY=    -113.8655099

                                 -----------------------
                                 GRADIENT (HARTREE/BOHR)
                                 -----------------------
        ATOM     ZNUC       DE/DX         DE/DY         DE/DZ
 --------------------------------------------------------------
   1  O            8.0     0.0000000     0.0000000     0.0327987
   2  C            6.0     0.0000000     0.0000000    -0.0430482
   3  H            1.0     0.0011987     0.0000000     0.0051247
   4  H            1.0    -0.0011987     0.0000000     0.0051247

          MAXIMUM GRADIENT =  0.0430482    RMS GRADIENT = 0.0157700
          HESSIAN UPDATED USING THE BFGS FORMULA
             ACTUAL ENERGY CHANGE WAS  -0.0011159243
          PREDICTED ENERGY CHANGE WAS  -0.0025239956 RATIO=  0.442
          MIN SEARCH, CORRECT HESSIAN, TRYING PURE NR STEP
               NR STEP HAS LENGTH         =   0.133058
          TRIM/QA LAMBDA FOR NON-TS MODES =  -0.01064531
          TRIM/QA STEP HAS LENGTH         =   0.110230
          RADIUS OF STEP TAKEN=   0.11023  CURRENT TRUST RADIUS=   0.11023

 BEGINNING GEOMETRY SEARCH POINT NSERCH=   2 ...

 COORDINATES OF SYMMETRY UNIQUE ATOMS (ANGS)
   ATOM   CHARGE       X              Y              Z
 ------------------------------------------------------------
 O           8.0  -0.0000000000   0.0000000000  -0.5681640852
 C           6.0   0.0000000000   0.0000000000   0.6140139713
 H           1.0   0.9365613663   0.0000000000   1.1698311017
 COORDINATES OF ALL ATOMS ARE (ANGS)
   ATOM   CHARGE       X              Y              Z
 ------------------------------------------------------------
 O           8.0  -0.0000000000   0.0000000000  -0.5681640852
 C           6.0   0.0000000000   0.0000000000   0.6140139713
 H           1.0  -0.9365613663   0.0000000000   1.1698311017
 H           1.0   0.9365613663   0.0000000000   1.1698311017

 THE CURRENT FULLY SUBSTITUTED Z-MATRIX IS
 O   
 C      1   1.1821781
 H      2   1.0890729  1   120.6876814
 H      2   1.0890729  1   120.6876814  3   180.0000000  0

          INTERNUCLEAR DISTANCES (ANGS.)
          ------------------------------

                1 O          2 C          3 H          4 H     

   1 O       0.0000000    1.1821781 *  1.9742782 *  1.9742782 *
   2 C       1.1821781 *  0.0000000    1.0890729 *  1.0890729 *
   3 H       1.9742782 *  1.0890729 *  0.0000000    1.8731227 *
   4 H       1.9742782 *  1.0890729 *  1.8731227 *  0.0000000  

  * ... LESS THAN  3.000

 ...... END OF ONE-ELECTRON INTEGRALS ......
 STEP CPU TIME =     0.00 TOTAL CPU TIME =        0.2 (    0.0 MIN)
 TOTAL WALL CLOCK TIME=        0.2 SECONDS, CPU UTILIZATION IS 100.00%
 TOTAL NUMBER OF NONZERO TWO-ELECTRON INTEGRALS =               48520
          4 INTEGRAL RECORDS WERE STORED ON DISK FILE  8.
  ...... END OF TWO-ELECTRON INTEGRALS .....
 STEP CPU TIME =     0.01 TOTAL CPU TIME =        0.2 (    0.0 MIN)
 TOTAL WALL CLOCK TIME=        0.3 SECONDS, CPU UTILIZATION IS  96.00%

          --------------------------
                 RHF SCF CALCULATION
          --------------------------
     DENSITY MATRIX CONV=  5.00E-05

 ITER EX DEM     TOTAL ENERGY        E CHANGE  DENSITY CHANGE     ORB. GRAD
          ---------------START SECOND ORDER SCF---------------
   1  0  0     -113.8654295419  -113.8654295419   0.009528155   0.006250932
   2  1  0     -113.8659490903    -0.0005195484   0.005505975   0.002590276
   3  2  0     -113.8660007407    -0.0000516504   0.001561658   0.001501476
   4  3  0     -113.8660123147    -0.0000115740   0.000445273   0.000185476
   5  4  0     -113.8660127337    -0.0000004190   0.000336022   0.000074780
   6  5  0     -113.8660128453    -0.0000001116   0.000047459   0.000021567
   7  6  0     -113.8660128516    -0.0000000063   0.000020461   0.000007371
   8  7  0     -113.8660128524    -0.0000000008   0.000004286   0.000001206

          -----------------
          DENSITY CONVERGED
          -----------------
     TIME TO FORM FOCK OPERATORS=       0.0 SECONDS (       0.0 SEC/ITER)
     TIME TO SOLVE SCF EQUATIONS=       0.0 SECONDS (       0.0 SEC/ITER)

 FINAL RHF ENERGY IS     -113.8660128524 AFTER   8 ITERATIONS
 ...... END OF RHF CALCULATION ......
 STEP CPU TIME =     0.02 TOTAL CPU TIME =        0.3 (    0.0 MIN)
 TOTAL WALL CLOCK TIME=        0.3 SECONDS, CPU UTILIZATION IS 100.00%
 ..... END OF 1-ELECTRON GRADIENT ......
 STEP CPU TIME =     0.00 TOTAL CPU TIME =        0.3 (    0.0 MIN)
 TOTAL WALL CLOCK TIME=        0.3 SECONDS, CPU UTILIZATION IS  96.30%
 ...... END OF 2-ELECTRON GRADIENT ......
 STEP CPU TIME =     0.06 TOTAL CPU TIME =        0.3 (    0.0 MIN)
 TOTAL WALL CLOCK TIME=        0.3 SECONDS, CPU UTILIZATION IS  96.97%

          NSERCH=  2     ENERGY=    -113.8660129

                                 -----------------------
                                 GRADIENT (HARTREE/BOHR)
                                 -----------------------
        ATOM     ZNUC       DE/DX         DE/DY         DE/DZ
 --------------------------------------------------------------
   1  O            8.0     0.0000000     0.0000000     0.0082616
   2  C            6.0     0.0000000     0.0000000     0.0025926
   3  H            1.0    -0.0017840     0.0000000    -0.0054271
   4  H            1.0     0.0017840     0.0000000    -0.0054271

          MAXIMUM GRADIENT =  0.0082616    RMS GRADIENT = 0.0034187
          HESSIAN UPDATED USING THE BFGS FORMULA
             ACTUAL ENERGY CHANGE WAS  -0.0005029080
          PREDICTED ENERGY CHANGE WAS  -0.0011033175 RATIO=  0.456
          MIN SEARCH, CORRECT HESSIAN, TRYING PURE NR STEP
               NR STEP HAS LENGTH         =   0.093483
          RADIUS OF STEP TAKEN=   0.09348  CURRENT TRUST RADIUS=   0.11023

 BEGINNING GEOMETRY SEARCH POINT NSERCH=   3 ...

 COORDINATES OF SYMMETRY UNIQUE ATOMS (ANGS)
   ATOM   CHARGE       X              Y              Z
 ------------------------------------------------------------
 O           8.0  -0.0000000000   0.0000000000  -0.5946335450
 C           6.0   0.0000000000   0.0000000000   0.5997154915
 H           1.0   0.9177053894   0.0000000000   1.1902150715
 COORDINATES OF ALL ATOMS ARE (ANGS)
   ATOM   CHARGE       X              Y              Z
 ------------------------------------------------------------
 O           8.0  -0.0000000000   0.0000000000  -0.5946335450
 C           6.0   0.0000000000   0.0000000000   0.5997154915
 H           1.0  -0.9177053894   0.0000000000   1.1902150715
 H           1.0   0.9177053894   0.0000000000   1.1902150715

 THE CURRENT FULLY SUBSTITUTED Z-MATRIX IS
 O   
 C      1   1.1943490
 H      2   1.0912712  1   122.7593454
 H      2   1.0912712  1   122.7593454  3   180.0000000  0

          INTERNUCLEAR DISTANCES (ANGS.)
          ------------------------------

                1 O          2 C          3 H          4 H     

   1 O       0.0000000    1.1943490 *  2.0069548 *  2.0069548 *
   2 C       1.1943490 *  0.0000000    1.0912712 *  1.0912712 *
   3 H       2.0069548 *  1.0912712 *  0.0000000    1.8354108 *
   4 H       2.0069548 *  1.0912712 *  1.8354108 *  0.0000000  

  * ... LESS THAN  3.000

 ...... END OF ONE-ELECTRON INTEGRALS ......
 STEP CPU TIME =     0.00 TOTAL CPU TIME =        0.3 (    0.0 MIN)
 TOTAL WALL CLOCK TIME=        0.3 SECONDS, CPU UTILIZATION IS  96.97%
 TOTAL NUMBER OF NONZERO TWO-ELECTRON INTEGRALS =               48519
          4 INTEGRAL RECORDS WERE STORED ON DISK FILE  8.
  ...... END OF TWO-ELECTRON INTEGRALS .....
 STEP CPU TIME =     0.02 TOTAL CPU TIME =        0.3 (    0.0 MIN)
 TOTAL WALL CLOCK TIME=        0.3 SECONDS, CPU UTILIZATION IS 100.00%

          --------------------------
                 RHF SCF CALCULATION
          --------------------------
     DENSITY MATRIX CONV=  1.00E-05

 ITER EX DEM     TOTAL ENERGY        E CHANGE  DENSITY CHANGE     ORB. GRAD
          ---------------START SECOND ORDER SCF---------------
   1  0  0     -113.8658866059  -113.8658866059   0.005218733   0.004993874
   2  1  0     -113.8660538731    -0.0001672673   0.001523937   0.001219322
   3  2  0     -113.8660663552    -0.0000124821   0.000676600   0.000274106
   4  3  0     -113.8660672413    -0.0000008860   0.000379129   0.000152368
   5  4  0     -113.8660674126    -0.0000001713   0.000099543   0.000053665
   6  5  0     -113.8660674388    -0.0000000263   0.000027926   0.000019200
   7  6  0     -113.8660674425    -0.0000000036   0.000016028   0.000006280
   8  7  0     -113.8660674428    -0.0000000004   0.000002728   0.000000920
   9  8  0     -113.8660674428    -0.0000000000   0.000000695   0.000000266

          -----------------
          DENSITY CONVERGED
          -----------------
     TIME TO FORM FOCK OPERATORS=       0.0 SECONDS (       0.0 SEC/ITER)
     TIME TO SOLVE SCF EQUATIONS=       0.0 SECONDS (       0.0 SEC/ITER)

 FINAL RHF ENERGY IS     -113.8660674428 AFTER   9 ITERATIONS
 ...... END OF RHF CALCULATION ......
 STEP CPU TIME =     0.01 TOTAL CPU TIME =        0.4 (    0.0 MIN)
 TOTAL WALL CLOCK TIME=        0.4 SECONDS, CPU UTILIZATION IS  97.22%
 ..... END OF 1-ELECTRON GRADIENT ......
 STEP CPU TIME =     0.01 TOTAL CPU TIME =        0.4 (    0.0 MIN)
 TOTAL WALL CLOCK TIME=        0.4 SECONDS, CPU UTILIZATION IS 100.00%
 ...... END OF 2-ELECTRON GRADIENT ......
 STEP CPU TIME =     0.06 TOTAL CPU TIME =        0.4 (    0.0 MIN)
 TOTAL WALL CLOCK TIME=        0.4 SECONDS, CPU UTILIZATION IS 100.00%

          NSERCH=  3     ENERGY=    -113.8660674

                                 -----------------------
                                 GRADIENT (HARTREE/BOHR)
                                 -----------------------
        ATOM     ZNUC       DE/DX         DE/DY         DE/DZ
 --------------------------------------------------------------
   1  O            8.0     0.0000000     0.0000000    -0.0211791
   2  C            6.0     0.0000000     0.0000000     0.0162051
   3  H            1.0     0.0013993     0.0000000     0.0024870
   4  H            1.0    -0.0013993     0.0000000     0.0024870

          MAXIMUM GRADIENT =  0.0211791    RMS GRADIENT = 0.0077859
          HESSIAN UPDATED USING THE BFGS FORMULA
             ACTUAL ENERGY CHANGE WAS  -0.0000545904
          PREDICTED ENERGY CHANGE WAS  -0.0005142717 RATIO=  0.106
          MIN SEARCH, CORRECT HESSIAN, TRYING PURE NR STEP
               NR STEP HAS LENGTH         =   0.033653
          RADIUS OF STEP TAKEN=   0.03365  CURRENT TRUST RADIUS=   0.09348

 BEGINNING GEOMETRY SEARCH POINT NSERCH=   4 ...

 COORDINATES OF SYMMETRY UNIQUE ATOMS (ANGS)
   ATOM   CHARGE       X              Y              Z
 ------------------------------------------------------------
 O           8.0  -0.0000000000   0.0000000000  -0.5825038697
 C           6.0   0.0000000000   0.0000000000   0.6012611607
 H           1.0   0.9237927594   0.0000000000   1.1833773993
 COORDINATES OF ALL ATOMS ARE (ANGS)
   ATOM   CHARGE       X              Y              Z
 ------------------------------------------------------------
 O           8.0  -0.0000000000   0.0000000000  -0.5825038697
 C           6.0   0.0000000000   0.0000000000   0.6012611607
 H           1.0  -0.9237927594   0.0000000000   1.1833773993
 H           1.0   0.9237927594   0.0000000000   1.1833773993

 THE CURRENT FULLY SUBSTITUTED Z-MATRIX IS
 O   
 C      1   1.1837650
 H      2   1.0919031  1   122.2165573
 H      2   1.0919031  1   122.2165573  3   180.0000000  0

          INTERNUCLEAR DISTANCES (ANGS.)
          ------------------------------

                1 O          2 C          3 H          4 H     

   1 O       0.0000000    1.1837650 *  1.9929199 *  1.9929199 *
   2 C       1.1837650 *  0.0000000    1.0919031 *  1.0919031 *
   3 H       1.9929199 *  1.0919031 *  0.0000000    1.8475855 *
   4 H       1.9929199 *  1.0919031 *  1.8475855 *  0.0000000  

  * ... LESS THAN  3.000

 ...... END OF ONE-ELECTRON INTEGRALS ......
 STEP CPU TIME =     0.00 TOTAL CPU TIME =        0.4 (    0.0 MIN)
 TOTAL WALL CLOCK TIME=        0.4 SECONDS, CPU UTILIZATION IS 100.00%
 TOTAL NUMBER OF NONZERO TWO-ELECTRON INTEGRALS =               48520
          4 INTEGRAL RECORDS WERE STORED ON DISK FILE  8.
  ...... END OF TWO-ELECTRON INTEGRALS .....
 STEP CPU TIME =     0.01 TOTAL CPU TIME =        0.4 (    0.0 MIN)
 TOTAL WALL CLOCK TIME=        0.4 SECONDS, CPU UTILIZATION IS  97.73%

          --------------------------
                 RHF SCF CALCULATION
          --------------------------
     DENSITY MATRIX CONV=  5.00E-05

 ITER EX DEM     TOTAL ENERGY        E CHANGE  DENSITY CHANGE     ORB. GRAD
          ---------------START SECOND ORDER SCF---------------
   1  0  0     -113.8662473915  -113.8662473915   0.003522832   0.002905808
   2  1  0     -113.8663226554    -0.0000752639   0.001747190   0.001029529
   3  2  0     -113.8663295396    -0.0000068842   0.000541674   0.000385816
   4  3  0     -113.8663301455    -0.0000006059   0.000139630   0.000121145
   5  4  0     -113.8663302555    -0.0000001100   0.000041803   0.000022867
   6  5  0     -113.8663302610    -0.0000000055   0.000022096   0.000009926
   7  6  0     -113.8663302618    -0.0000000008   0.000005274   0.000002083

          -----------------
          DENSITY CONVERGED
          -----------------
     TIME TO FORM FOCK OPERATORS=       0.0 SECONDS (       0.0 SEC/ITER)
     TIME TO SOLVE SCF EQUATIONS=       0.0 SECONDS (       0.0 SEC/ITER)

 FINAL RHF ENERGY IS     -113.8663302618 AFTER   7 ITERATIONS
 ...... END OF RHF CALCULATION ......
 STEP CPU TIME =     0.02 TOTAL CPU TIME =        0.5 (    0.0 MIN)
 TOTAL WALL CLOCK TIME=        0.5 SECONDS, CPU UTILIZATION IS 100.00%
 ..... END OF 1-ELECTRON GRADIENT ......
 STEP CPU TIME =     0.00 TOTAL CPU TIME =        0.5 (    0.0 MIN)
 TOTAL WALL CLOCK TIME=        0.5 SECONDS, CPU UTILIZATION IS  97.83%
 ...... END OF 2-ELECTRON GRADIENT ......
 STEP CPU TIME =     0.06 TOTAL CPU TIME =        0.5 (    0.0 MIN)
 TOTAL WALL CLOCK TIME=        0.6 SECONDS, CPU UTILIZATION IS  92.73%

          NSERCH=  4     ENERGY=    -113.8663303

                                 -----------------------
                                 GRADIENT (HARTREE/BOHR)
                                 -----------------------
        ATOM     ZNUC       DE/DX         DE/DY         DE/DZ
 --------------------------------------------------------------
   1  O            8.0     0.0000000     0.0000000     0.0010321
   2  C            6.0     0.0000000     0.0000000    -0.0014591
   3  H            1.0    -0.0000085     0.0000000     0.0002135
   4  H            1.0     0.0000085     0.0000000     0.0002135

          MAXIMUM GRADIENT =  0.0014591    RMS GRADIENT = 0.0005232
          HESSIAN UPDATED USING THE BFGS FORMULA
             ACTUAL ENERGY CHANGE WAS  -0.0002628189
          PREDICTED ENERGY CHANGE WAS  -0.0002672961 RATIO=  0.983
          MIN SEARCH, CORRECT HESSIAN, TRYING PURE NR STEP
               NR STEP HAS LENGTH         =   0.002264
          RADIUS OF STEP TAKEN=   0.00226  CURRENT TRUST RADIUS=   0.06731

 BEGINNING GEOMETRY SEARCH POINT NSERCH=   5 ...

 COORDINATES OF SYMMETRY UNIQUE ATOMS (ANGS)
   ATOM   CHARGE       X              Y              Z
 ------------------------------------------------------------
 O           8.0  -0.0000000000   0.0000000000  -0.5823572690
 C           6.0   0.0000000000   0.0000000000   0.6020541894
 H           1.0   0.9242073912   0.0000000000   1.1829075846
 COORDINATES OF ALL ATOMS ARE (ANGS)
   ATOM   CHARGE       X              Y              Z
 ------------------------------------------------------------
 O           8.0  -0.0000000000   0.0000000000  -0.5823572690
 C           6.0   0.0000000000   0.0000000000   0.6020541894
 H           1.0  -0.9242073912   0.0000000000   1.1829075846
 H           1.0   0.9242073912   0.0000000000   1.1829075846

 THE CURRENT FULLY SUBSTITUTED Z-MATRIX IS
 O   
 C      1   1.1844115
 H      2   1.0915814  1   122.1488749
 H      2   1.0915814  1   122.1488749  3   180.0000000  0

          INTERNUCLEAR DISTANCES (ANGS.)
          ------------------------------

                1 O          2 C          3 H          4 H     

   1 O       0.0000000    1.1844115 *  1.9925660 *  1.9925660 *
   2 C       1.1844115 *  0.0000000    1.0915814 *  1.0915814 *
   3 H       1.9925660 *  1.0915814 *  0.0000000    1.8484148 *
   4 H       1.9925660 *  1.0915814 *  1.8484148 *  0.0000000  

  * ... LESS THAN  3.000

 ...... END OF ONE-ELECTRON INTEGRALS ......
 STEP CPU TIME =     0.00 TOTAL CPU TIME =        0.5 (    0.0 MIN)
 TOTAL WALL CLOCK TIME=        0.6 SECONDS, CPU UTILIZATION IS  92.73%
 TOTAL NUMBER OF NONZERO TWO-ELECTRON INTEGRALS =               48520
          4 INTEGRAL RECORDS WERE STORED ON DISK FILE  8.
  ...... END OF TWO-ELECTRON INTEGRALS .....
 STEP CPU TIME =     0.02 TOTAL CPU TIME =        0.5 (    0.0 MIN)
 TOTAL WALL CLOCK TIME=        0.6 SECONDS, CPU UTILIZATION IS  92.98%

          --------------------------
                 RHF SCF CALCULATION
          --------------------------
     DENSITY MATRIX CONV=  1.00E-05

 ITER EX DEM     TOTAL ENERGY        E CHANGE  DENSITY CHANGE     ORB. GRAD
          ---------------START SECOND ORDER SCF---------------
   1  0  0     -113.8663306170  -113.8663306170   0.000333479   0.000205953
   2  1  0     -113.8663311653    -0.0000005483   0.000199415   0.000090091
   3  2  0     -113.8663312250    -0.0000000597   0.000046456   0.000046618
   4  3  0     -113.8663312376    -0.0000000126   0.000012471   0.000005099
   5  4  0     -113.8663312380    -0.0000000004   0.000007928   0.000002242
   6  5  0     -113.8663312380    -0.0000000001   0.000002016   0.000000746

          -----------------
          DENSITY CONVERGED
          -----------------
     TIME TO FORM FOCK OPERATORS=       0.0 SECONDS (       0.0 SEC/ITER)
     TIME TO SOLVE SCF EQUATIONS=       0.0 SECONDS (       0.0 SEC/ITER)

 FINAL RHF ENERGY IS     -113.8663312380 AFTER   6 ITERATIONS
 ...... END OF RHF CALCULATION ......
 STEP CPU TIME =     0.02 TOTAL CPU TIME =        0.5 (    0.0 MIN)
 TOTAL WALL CLOCK TIME=        0.6 SECONDS, CPU UTILIZATION IS  94.83%
 ..... END OF 1-ELECTRON GRADIENT ......
 STEP CPU TIME =     0.00 TOTAL CPU TIME =        0.5 (    0.0 MIN)
 TOTAL WALL CLOCK TIME=        0.6 SECONDS, CPU UTILIZATION IS  93.22%
 ...... END OF 2-ELECTRON GRADIENT ......
 STEP CPU TIME =     0.06 TOTAL CPU TIME =        0.6 (    0.0 MIN)
 TOTAL WALL CLOCK TIME=        0.7 SECONDS, CPU UTILIZATION IS  93.85%

          NSERCH=  5     ENERGY=    -113.8663312

                                 -----------------------
                                 GRADIENT (HARTREE/BOHR)
                                 -----------------------
        ATOM     ZNUC       DE/DX         DE/DY         DE/DZ
 --------------------------------------------------------------
   1  O            8.0     0.0000000     0.0000000    -0.0001036
   2  C            6.0     0.0000000     0.0000000     0.0001809
   3  H            1.0    -0.0000017     0.0000000    -0.0000387
   4  H            1.0     0.0000017     0.0000000    -0.0000387

          MAXIMUM GRADIENT =  0.0001809    RMS GRADIENT = 0.0000622
          HESSIAN UPDATED USING THE BFGS FORMULA
             ACTUAL ENERGY CHANGE WAS  -0.0000009763
          PREDICTED ENERGY CHANGE WAS  -0.0000011332 RATIO=  0.862
          MIN SEARCH, CORRECT HESSIAN, TRYING PURE NR STEP
               NR STEP HAS LENGTH         =   0.000357
          RADIUS OF STEP TAKEN=   0.00036  CURRENT TRUST RADIUS=   0.05000

 BEGINNING GEOMETRY SEARCH POINT NSERCH=   6 ...

 COORDINATES OF SYMMETRY UNIQUE ATOMS (ANGS)
   ATOM   CHARGE       X              Y              Z
 ------------------------------------------------------------
 O           8.0  -0.0000000000   0.0000000000  -0.5824034663
 C           6.0   0.0000000000   0.0000000000   0.6019443503
 H           1.0   0.9241391742   0.0000000000   1.1829856028
 COORDINATES OF ALL ATOMS ARE (ANGS)
   ATOM   CHARGE       X              Y              Z
 ------------------------------------------------------------
 O           8.0  -0.0000000000   0.0000000000  -0.5824034663
 C           6.0   0.0000000000   0.0000000000   0.6019443503
 H           1.0  -0.9241391742   0.0000000000   1.1829856028
 H           1.0   0.9241391742   0.0000000000   1.1829856028

 THE CURRENT FULLY SUBSTITUTED Z-MATRIX IS
 O   
 C      1   1.1843478
 H      2   1.0916236  1   122.1591283
 H      2   1.0916236  1   122.1591283  3   180.0000000  0

          INTERNUCLEAR DISTANCES (ANGS.)
          ------------------------------

                1 O          2 C          3 H          4 H     

   1 O       0.0000000    1.1843478 *  1.9926444 *  1.9926444 *
   2 C       1.1843478 *  0.0000000    1.0916236 *  1.0916236 *
   3 H       1.9926444 *  1.0916236 *  0.0000000    1.8482783 *
   4 H       1.9926444 *  1.0916236 *  1.8482783 *  0.0000000  

  * ... LESS THAN  3.000

 ...... END OF ONE-ELECTRON INTEGRALS ......
 STEP CPU TIME =     0.00 TOTAL CPU TIME =        0.6 (    0.0 MIN)
 TOTAL WALL CLOCK TIME=        0.7 SECONDS, CPU UTILIZATION IS  93.85%
 TOTAL NUMBER OF NONZERO TWO-ELECTRON INTEGRALS =               48520
          4 INTEGRAL RECORDS WERE STORED ON DISK FILE  8.
  ...... END OF TWO-ELECTRON INTEGRALS .....
 STEP CPU TIME =     0.02 TOTAL CPU TIME =        0.6 (    0.0 MIN)
 TOTAL WALL CLOCK TIME=        0.7 SECONDS, CPU UTILIZATION IS  95.45%

          --------------------------
                 RHF SCF CALCULATION
          --------------------------
     DENSITY MATRIX CONV=  1.00E-05

 ITER EX DEM     TOTAL ENERGY        E CHANGE  DENSITY CHANGE     ORB. GRAD
          ---------------START SECOND ORDER SCF---------------
   1  0  0     -113.8663312495  -113.8663312495   0.000037251   0.000025476
   2  1  0     -113.8663312572    -0.0000000076   0.000022582   0.000010299
   3  2  0     -113.8663312580    -0.0000000008   0.000005759   0.000005771
   4  3  0     -113.8663312582    -0.0000000002   0.000001420   0.000000523

          -----------------
          DENSITY CONVERGED
          -----------------
     TIME TO FORM FOCK OPERATORS=       0.0 SECONDS (       0.0 SEC/ITER)
     TIME TO SOLVE SCF EQUATIONS=       0.0 SECONDS (       0.0 SEC/ITER)

 FINAL RHF ENERGY IS     -113.8663312582 AFTER   4 ITERATIONS
 ...... END OF RHF CALCULATION ......
 STEP CPU TIME =     0.00 TOTAL CPU TIME =        0.6 (    0.0 MIN)
 TOTAL WALL CLOCK TIME=        0.7 SECONDS, CPU UTILIZATION IS  94.03%
 ..... END OF 1-ELECTRON GRADIENT ......
 STEP CPU TIME =     0.01 TOTAL CPU TIME =        0.6 (    0.0 MIN)
 TOTAL WALL CLOCK TIME=        0.7 SECONDS, CPU UTILIZATION IS  95.52%
 ...... END OF 2-ELECTRON GRADIENT ......
 STEP CPU TIME =     0.05 TOTAL CPU TIME =        0.7 (    0.0 MIN)
 TOTAL WALL CLOCK TIME=        0.7 SECONDS, CPU UTILIZATION IS  94.52%

          NSERCH=  6     ENERGY=    -113.8663313

                                 -----------------------
                                 GRADIENT (HARTREE/BOHR)
                                 -----------------------
        ATOM     ZNUC       DE/DX         DE/DY         DE/DZ
 --------------------------------------------------------------
   1  O            8.0     0.0000000     0.0000000    -0.0000015
   2  C            6.0     0.0000000     0.0000000     0.0000006
   3  H            1.0    -0.0000000     0.0000000     0.0000004
   4  H            1.0     0.0000000     0.0000000     0.0000004

          MAXIMUM GRADIENT =  0.0000015    RMS GRADIENT = 0.0000005

      ***** EQUILIBRIUM GEOMETRY LOCATED *****
 COORDINATES OF SYMMETRY UNIQUE ATOMS (ANGS)
   ATOM   CHARGE       X              Y              Z
 ------------------------------------------------------------
 O           8.0  -0.0000000000   0.0000000000  -0.5824034663
 C           6.0   0.0000000000   0.0000000000   0.6019443503
 H           1.0   0.9241391742   0.0000000000   1.1829856028
 COORDINATES OF ALL ATOMS ARE (ANGS)
   ATOM   CHARGE       X              Y              Z
 ------------------------------------------------------------
 O           8.0  -0.0000000000   0.0000000000  -0.5824034663
 C           6.0   0.0000000000   0.0000000000   0.6019443503
 H           1.0  -0.9241391742   0.0000000000   1.1829856028
 H           1.0   0.9241391742   0.0000000000   1.1829856028

 THE CURRENT FULLY SUBSTITUTED Z-MATRIX IS
 O   
 C      1   1.1843478
 H      2   1.0916236  1   122.1591283
 H      2   1.0916236  1   122.1591283  3   180.0000000  0

          INTERNUCLEAR DISTANCES (ANGS.)
          ------------------------------

                1 O          2 C          3 H          4 H     

   1 O       0.0000000    1.1843478 *  1.9926444 *  1.9926444 *
   2 C       1.1843478 *  0.0000000    1.0916236 *  1.0916236 *
   3 H       1.9926444 *  1.0916236 *  0.0000000    1.8482783 *
   4 H       1.9926444 *  1.0916236 *  1.8482783 *  0.0000000  

  * ... LESS THAN  3.000


          NUCLEAR ENERGY    =       31.7993242588
          ELECTRONIC ENERGY =     -145.6656555170
          TOTAL ENERGY      =     -113.8663312582

          ------------------
          MOLECULAR ORBITALS
          ------------------

                      1          2          3          4          5
                  -20.5831   -11.3367    -1.4173    -0.8683    -0.6974
                     A1         A1         A1         A1         B1  
    1  O  1  S    0.994683  -0.000460   0.196585  -0.087550   0.000000
    2  O  1  S    0.021042   0.000318  -0.438862   0.199990   0.000000
    3  O  1  X    0.000000   0.000000   0.000000   0.000000  -0.349036
    4  O  1  Y    0.000000   0.000000   0.000000   0.000000   0.000000
    5  O  1  Z    0.001664   0.000367  -0.144706  -0.144529   0.000000
    6  O  1  S    0.004670  -0.001127  -0.364698   0.268265   0.000000
    7  O  1  X    0.000000   0.000000   0.000000   0.000000  -0.196510
    8  O  1  Y    0.000000   0.000000   0.000000   0.000000   0.000000
    9  O  1  Z    0.000085  -0.001279  -0.044022  -0.068659   0.000000
   10  O  1 XX   -0.003912  -0.000113   0.001016   0.004100   0.000000
   11  O  1 YY   -0.004251   0.000141   0.000315   0.000222   0.000000
   12  O  1 ZZ   -0.003469  -0.000058  -0.019828  -0.008024   0.000000
   13  O  1 XY    0.000000   0.000000   0.000000   0.000000   0.000000
   14  O  1 XZ    0.000000   0.000000   0.000000   0.000000  -0.025893
   15  O  1 YZ    0.000000   0.000000   0.000000   0.000000   0.000000
   16  C  2  S   -0.000001   0.995620   0.114691   0.160601   0.000000
   17  C  2  S    0.000378   0.027027  -0.216626  -0.334686   0.000000
   18  C  2  X    0.000000   0.000000   0.000000   0.000000  -0.411664
   19  C  2  Y    0.000000   0.000000   0.000000   0.000000   0.000000
   20  C  2  Z    0.000230  -0.000800   0.184870  -0.192077   0.000000
   21  C  2  S   -0.000375  -0.007119  -0.079975  -0.312161   0.000000
   22  C  2  X    0.000000   0.000000   0.000000   0.000000  -0.151993
   23  C  2  Y    0.000000   0.000000   0.000000   0.000000   0.000000
   24  C  2  Z    0.000579  -0.001657  -0.013188  -0.082680   0.000000
   25  C  2 XX   -0.000042  -0.002186   0.015979  -0.028645   0.000000
   26  C  2 YY    0.000009  -0.002805   0.017665   0.012960   0.000000
   27  C  2 ZZ   -0.000874  -0.001172  -0.033971  -0.000776   0.000000
   28  C  2 XY    0.000000   0.000000   0.000000   0.000000   0.000000
   29  C  2 XZ    0.000000   0.000000   0.000000   0.000000  -0.010389
   30  C  2 YZ    0.000000   0.000000   0.000000   0.000000   0.000000
   31  H  3  S   -0.000015  -0.000176  -0.027961  -0.179254   0.180055
   32  H  3  S   -0.000148   0.002114   0.006889  -0.065670   0.116051
   33  H  4  S   -0.000015  -0.000176  -0.027961  -0.179254  -0.180055
   34  H  4  S   -0.000148   0.002114   0.006889  -0.065670  -0.116051

                      6          7          8          9         10
                   -0.6528    -0.5402    -0.4355     0.1458     0.2499
                     A1         B2         B1         B2         A1  
    1  O  1  S    0.071717   0.000000   0.000000   0.000000   0.001332
    2  O  1  S   -0.160101   0.000000   0.000000   0.000000  -0.016722
    3  O  1  X    0.000000   0.000000  -0.546640   0.000000   0.000000
    4  O  1  Y    0.000000  -0.493442   0.000000   0.380203   0.000000
    5  O  1  Z    0.512875   0.000000   0.000000   0.000000  -0.059362
    6  O  1  S   -0.332871   0.000000   0.000000   0.000000   0.089040
    7  O  1  X    0.000000   0.000000  -0.433162   0.000000   0.000000
    8  O  1  Y    0.000000  -0.348659   0.000000   0.543115   0.000000
    9  O  1  Z    0.282516   0.000000   0.000000   0.000000  -0.065512
   10  O  1 XX   -0.008359   0.000000   0.000000   0.000000  -0.009719
   11  O  1 YY   -0.006005   0.000000   0.000000   0.000000   0.001849
   12  O  1 ZZ    0.034940   0.000000   0.000000   0.000000  -0.002746
   13  O  1 XY    0.000000   0.000000   0.000000   0.000000   0.000000
   14  O  1 XZ    0.000000   0.000000  -0.018452   0.000000   0.000000
   15  O  1 YZ    0.000000  -0.042698   0.000000   0.003701   0.000000
   16  C  2  S   -0.021266   0.000000   0.000000   0.000000  -0.122785
   17  C  2  S    0.064788   0.000000   0.000000   0.000000   0.145931
   18  C  2  X    0.000000   0.000000   0.205870   0.000000   0.000000
   19  C  2  Y    0.000000  -0.329291   0.000000  -0.397474   0.000000
   20  C  2  Z   -0.372442   0.000000   0.000000   0.000000   0.215208
   21  C  2  S   -0.045799   0.000000   0.000000   0.000000   2.001114
   22  C  2  X    0.000000   0.000000   0.057461   0.000000   0.000000
   23  C  2  Y    0.000000  -0.200601   0.000000  -0.734441   0.000000
   24  C  2  Z   -0.078968   0.000000   0.000000   0.000000   0.769971
   25  C  2 XX   -0.027291   0.000000   0.000000   0.000000  -0.010603
   26  C  2 YY   -0.006306   0.000000   0.000000   0.000000  -0.002655
   27  C  2 ZZ    0.016529   0.000000   0.000000   0.000000  -0.005424
   28  C  2 XY    0.000000   0.000000   0.000000   0.000000   0.000000
   29  C  2 XZ    0.000000   0.000000   0.063982   0.000000   0.000000
   30  C  2 YZ    0.000000   0.037283   0.000000  -0.033222   0.000000
   31  H  3  S   -0.090591   0.000000  -0.192892   0.000000  -0.042062
   32  H  3  S   -0.072367   0.000000  -0.243611   0.000000  -1.483147
   33  H  4  S   -0.090591   0.000000   0.192892   0.000000  -0.042062
   34  H  4  S   -0.072367   0.000000   0.243611   0.000000  -1.483147

                     11         12         13         14         15
                    0.3395     0.3750     0.7328     0.8282     0.8313
                     B1         A1         B2         A1         B1  
    1  O  1  S    0.000000  -0.109900   0.000000  -0.017902   0.000000
    2  O  1  S    0.000000   0.021390   0.000000   0.255479   0.000000
    3  O  1  X    0.140974   0.000000   0.000000   0.000000   0.317033
    4  O  1  Y    0.000000   0.000000  -0.007037   0.000000   0.000000
    5  O  1  Z    0.000000   0.131217   0.000000   0.005939   0.000000
    6  O  1  S    0.000000   2.421670   0.000000  -0.193964   0.000000
    7  O  1  X    0.426961   0.000000   0.000000   0.000000   0.295522
    8  O  1  Y    0.000000   0.000000  -0.075129   0.000000   0.000000
    9  O  1  Z    0.000000   0.938083   0.000000   0.246425   0.000000
   10  O  1 XX    0.000000  -0.085612   0.000000   0.090469   0.000000
   11  O  1 YY    0.000000  -0.088097   0.000000   0.036091   0.000000
   12  O  1 ZZ    0.000000   0.000194   0.000000   0.058294   0.000000
   13  O  1 XY    0.000000   0.000000   0.000000   0.000000   0.000000
   14  O  1 XZ   -0.005132   0.000000   0.000000   0.000000   0.038416
   15  O  1 YZ    0.000000   0.000000  -0.092480   0.000000   0.000000
   16  C  2  S    0.000000   0.043394   0.000000   0.069708   0.000000
   17  C  2  S    0.000000   0.008437   0.000000   0.807892   0.000000
   18  C  2  X   -0.442875   0.000000   0.000000   0.000000   0.754658
   19  C  2  Y    0.000000   0.000000  -1.068093   0.000000   0.000000
   20  C  2  Z    0.000000   0.049364   0.000000   0.397691   0.000000
   21  C  2  S    0.000000  -1.842879   0.000000  -2.256230   0.000000
   22  C  2  X   -1.600665   0.000000   0.000000   0.000000  -2.376213
   23  C  2  Y    0.000000   0.000000   1.098278   0.000000   0.000000
   24  C  2  Z    0.000000   2.086533   0.000000  -0.885928   0.000000
   25  C  2 XX    0.000000  -0.014191   0.000000   0.212534   0.000000
   26  C  2 YY    0.000000  -0.001496   0.000000  -0.054108   0.000000
   27  C  2 ZZ    0.000000  -0.003120   0.000000   0.095323   0.000000
   28  C  2 XY    0.000000   0.000000   0.000000   0.000000   0.000000
   29  C  2 XZ   -0.006191   0.000000   0.000000   0.000000   0.059358
   30  C  2 YZ    0.000000   0.000000   0.013195   0.000000   0.000000
   31  H  3  S    0.033227  -0.002955   0.000000   0.567659  -0.346437
   32  H  3  S   -1.785629  -0.123704   0.000000   0.411270  -0.954742
   33  H  4  S   -0.033227  -0.002955   0.000000   0.567659   0.346437
   34  H  4  S    1.785629  -0.123704   0.000000   0.411270   0.954742

                     16         17         18
                    0.9917     1.0930     1.0969
                     A1         B1         A1  
    1  O  1  S    0.054761   0.000000  -0.027022
    2  O  1  S   -0.255655   0.000000  -0.481428
    3  O  1  X    0.000000   0.139389   0.000000
    4  O  1  Y    0.000000   0.000000   0.000000
    5  O  1  Z   -0.204549   0.000000   0.749917
    6  O  1  S    0.124525   0.000000   0.697393
    7  O  1  X    0.000000  -0.024221   0.000000
    8  O  1  Y    0.000000   0.000000   0.000000
    9  O  1  Z   -0.689183   0.000000  -1.048937
   10  O  1 XX   -0.112356   0.000000  -0.175612
   11  O  1 YY   -0.122644   0.000000  -0.180295
   12  O  1 ZZ    0.153198   0.000000  -0.382933
   13  O  1 XY    0.000000   0.000000   0.000000
   14  O  1 XZ    0.000000  -0.146036   0.000000
   15  O  1 YZ    0.000000   0.000000   0.000000
   16  C  2  S   -0.031883   0.000000   0.081120
   17  C  2  S    0.858145   0.000000  -0.129307
   18  C  2  X    0.000000  -0.762703   0.000000
   19  C  2  Y    0.000000   0.000000   0.000000
   20  C  2  Z   -0.931544   0.000000  -0.101358
   21  C  2  S   -0.438473   0.000000   0.723080
   22  C  2  X    0.000000   0.971635   0.000000
   23  C  2  Y    0.000000   0.000000   0.000000
   24  C  2  Z    0.474215   0.000000   0.049231
   25  C  2 XX    0.144456   0.000000  -0.067916
   26  C  2 YY    0.073155   0.000000  -0.151479
   27  C  2 ZZ   -0.104766   0.000000   0.324797
   28  C  2 XY    0.000000   0.000000   0.000000
   29  C  2 XZ    0.000000   0.213087   0.000000
   30  C  2 YZ    0.000000   0.000000   0.000000
   31  H  3  S    0.116976  -0.730797   0.203520
   32  H  3  S   -0.039394   1.204850  -0.330062
   33  H  4  S    0.116976   0.730797   0.203520
   34  H  4  S   -0.039394  -1.204850  -0.330062

     ----------------------------------------------------------------
     PROPERTY VALUES FOR THE RHF   SELF-CONSISTENT FIELD WAVEFUNCTION
     ----------------------------------------------------------------

          -----------------
          ENERGY COMPONENTS
          -----------------

         WAVEFUNCTION NORMALIZATION =       1.0000000000

                ONE ELECTRON ENERGY =    -218.2688893761
                TWO ELECTRON ENERGY =      72.6032338591
           NUCLEAR REPULSION ENERGY =      31.7993242588
                                      ------------------
                       TOTAL ENERGY =    -113.8663312582

 ELECTRON-ELECTRON POTENTIAL ENERGY =      72.6032338591
  NUCLEUS-ELECTRON POTENTIAL ENERGY =    -331.9042474243
   NUCLEUS-NUCLEUS POTENTIAL ENERGY =      31.7993242588
                                      ------------------
             TOTAL POTENTIAL ENERGY =    -227.5016893064
               TOTAL KINETIC ENERGY =     113.6353580482
                 VIRIAL RATIO (V/T) =       2.0020325822

  ...... PI ENERGY ANALYSIS ......

 ENERGY ANALYSIS:
            FOCK ENERGY=    -73.0624254315
          BARE H ENERGY=   -218.2688893761
     ELECTRONIC ENERGY =   -145.6656574038
         KINETIC ENERGY=    113.6353580482
          N-N REPULSION=     31.7993242588
           TOTAL ENERGY=   -113.8663331450
        SIGMA PART(1+2)=   -136.4393910982
               (K,V1,2)=    110.1472698668   -311.0439867425     64.4573257775
           PI PART(1+2)=     -9.2262663056
               (K,V1,2)=      3.4880881814    -20.8602606818      8.1459061948
  SIGMA SKELETON, ERROR=   -104.6400668393      0.0000000000
             MIXED PART= 0.00000E+00 0.00000E+00 0.00000E+00 0.00000E+00
 ...... END OF PI ENERGY ANALYSIS ......

          ---------------------------------------
          MULLIKEN AND LOWDIN POPULATION ANALYSES
          ---------------------------------------

     ATOMIC MULLIKEN POPULATION IN EACH MOLECULAR ORBITAL

                      1          2          3          4          5

                  2.000000   2.000000   2.000000   2.000000   2.000000

    1             2.000302  -0.000579   1.475437   0.358257   0.620960
    2            -0.000295   1.999770   0.520881   1.121985   0.879116
    3            -0.000004   0.000404   0.001841   0.259879   0.249962
    4            -0.000004   0.000404   0.001841   0.259879   0.249962

                      6          7          8

                  2.000000   2.000000   2.000000

    1             1.391216   1.314103   1.256014
    2             0.459237   0.685897   0.198758
    3             0.074773   0.000000   0.272614
    4             0.074773   0.000000   0.272614

               ----- POPULATIONS IN EACH AO -----
                             MULLIKEN      LOWDIN
              1  O  1  S      1.99558     1.97779
              2  O  1  S      0.91888     0.71311
              3  O  1  X      1.16089     1.12139
              4  O  1  Y      0.73065     0.68468
              5  O  1  Z      0.94133     0.87706
              6  O  1  S      0.92063     0.46898
              7  O  1  X      0.70880     0.72173
              8  O  1  Y      0.56789     0.58309
              9  O  1  Z      0.42349     0.53057
             10  O  1 XX      0.00395     0.16984
             11  O  1 YY      0.00201     0.16857
             12  O  1 ZZ      0.01877     0.19658
             13  O  1 XY      0.00000     0.00000
             14  O  1 XZ      0.00728     0.01652
             15  O  1 YZ      0.01556     0.01742
             16  C  2  S      1.99661     1.97563
             17  C  2  S      0.69588     0.36671
             18  C  2  X      0.74356     0.64231
             19  C  2  Y      0.39966     0.36591
             20  C  2  Z      0.74328     0.66837
             21  C  2  S      0.51513     0.33655
             22  C  2  X      0.28059     0.43687
             23  C  2  Y      0.26835     0.31929
             24  C  2  Z      0.10587     0.27808
             25  C  2 XX      0.02517     0.17014
             26  C  2 YY     -0.02484     0.09806
             27  C  2 ZZ      0.04449     0.21784
             28  C  2 XY      0.00000     0.00000
             29  C  2 XZ      0.05373     0.11093
             30  C  2 YZ      0.01789     0.02962
             31  H  3  S      0.54112     0.49929
             32  H  3  S      0.31835     0.36889
             33  H  4  S      0.54112     0.49929
             34  H  4  S      0.31835     0.36889

          ----- MULLIKEN ATOMIC OVERLAP POPULATIONS -----
          (OFF-DIAGONAL ELEMENTS NEED TO BE MULTIPLIED BY 2)

             1           2           3           4

    1    7.9815235
    2    0.5432536   4.5707680
    3   -0.0545330   0.3756644   0.6128337
    4   -0.0545330   0.3756644  -0.0744959   0.6128337

          TOTAL MULLIKEN AND LOWDIN ATOMIC POPULATIONS
       ATOM         MULL.POP.    CHARGE          LOW.POP.     CHARGE
    1 O             8.415711   -0.415711         8.247328   -0.247328
    2 C             5.865350    0.134650         6.016300   -0.016300
    3 H             0.859469    0.140531         0.868186    0.131814
    4 H             0.859469    0.140531         0.868186    0.131814

          -------------------------------
          BOND ORDER AND VALENCE ANALYSIS     BOND ORDER THRESHOLD=0.050
          -------------------------------

                   BOND                       BOND                       BOND
  ATOM PAIR DIST  ORDER      ATOM PAIR DIST  ORDER      ATOM PAIR DIST  ORDER
    1   2  1.184  1.937        2   3  1.092  0.914        2   4  1.092  0.914

                       TOTAL       BONDED        FREE
      ATOM            VALENCE     VALENCE     VALENCE
    1 O                 1.960       1.960       0.000
    2 C                 3.764       3.764      -0.000
    3 H                 0.925       0.925      -0.000
    4 H                 0.925       0.925      -0.000

          ---------------------
          ELECTROSTATIC MOMENTS
          ---------------------

 POINT   1           X           Y           Z (BOHR)    CHARGE
                 0.000000    0.000000    0.018407       -0.00 (A.U.)
         DX          DY          DZ         /D/  (DEBYE)
     0.000000    0.000000    2.666289    2.666289
 ...... END OF PROPERTY EVALUATION ......
 STEP CPU TIME =     0.01 TOTAL CPU TIME =        0.7 (    0.0 MIN)
 TOTAL WALL CLOCK TIME=        0.7 SECONDS, CPU UTILIZATION IS  94.59%
  $VIB   
          IVIB=   0 IATOM=   0 ICOORD=   0 E=     -113.8663312582
  0.000000000E+00 0.000000000E+00-1.513767629E-06 0.000000000E+00 0.000000000E+00
  6.313811640E-07-3.451215869E-08 0.000000000E+00 4.411934647E-07 3.451215869E-08
  0.000000000E+00 4.411934647E-07
  0.000000000E+00 3.789009968E-17 2.666289262E+00
 ......END OF GEOMETRY SEARCH......
 STEP CPU TIME =     0.00 TOTAL CPU TIME =        0.7 (    0.0 MIN)
 TOTAL WALL CLOCK TIME=        0.7 SECONDS, CPU UTILIZATION IS  94.59%
      987815  WORDS OF DYNAMIC MEMORY USED
 EXECUTION OF GAMESS TERMINATED NORMALLY Mon Oct  3 14:12:08 2011
 DDI: 263224 bytes (0.3 MB / 0 MWords) used by master data server.

 ----------------------------------------
 CPU timing information for all processes
 ========================================
 0: 0.680 + 0.32 = 0.712
 ----------------------------------------
 ddikick.x: exited gracefully.
unset echo
----- accounting info -----
Files used on the master node idhi were:
-rw-r--r-- 1 koushik koushik     205 2011-10-03 14:12 /home/koushik/Desktop/gamess/formaldehydeopt.F05
-rw-r--r-- 1 koushik koushik  720048 2011-10-03 14:12 /home/koushik/Desktop/gamess/formaldehydeopt.F08
-rw-r--r-- 1 koushik koushik 1341520 2011-10-03 14:12 /home/koushik/Desktop/gamess/formaldehydeopt.F10
Mon Oct  3 14:12:11 IST 2011
0.1u 0.0s 0:03.81 3.1% 0+0k 0+32io 0pf+0w
