
          ******************************************************
          *         GAMESS VERSION =  1 OCT 2010 (R1)          *
          *             FROM IOWA STATE UNIVERSITY             *
          * M.W.SCHMIDT, K.K.BALDRIDGE, J.A.BOATZ, S.T.ELBERT, *
          *   M.S.GORDON, J.H.JENSEN, S.KOSEKI, N.MATSUNAGA,   *
          *          K.A.NGUYEN, S.J.SU, T.L.WINDUS,           *
          *       TOGETHER WITH M.DUPUIS, J.A.MONTGOMERY       *
          *         J.COMPUT.CHEM.  14, 1347-1363(1993)        *
          **************** 32 BIT LINUX VERSION ****************

  SINCE 1993, STUDENTS AND POSTDOCS WORKING AT IOWA STATE UNIVERSITY
  AND ALSO IN THEIR VARIOUS JOBS AFTER LEAVING ISU HAVE MADE IMPORTANT
  CONTRIBUTIONS TO THE CODE:
     IVANA ADAMOVIC, CHRISTINE AIKENS, YURI ALEXEEV, POOJA ARORA,
     ANDREY ASADCHEV, ROB BELL, PRADIPTA BANDYOPADHYAY, JONATHAN BENTZ,
     BRETT BODE, GALINA CHABAN, WEI CHEN, CHEOL HO CHOI, PAUL DAY, TIM DUDLEY,
     DMITRI FEDOROV, GRAHAM FLETCHER, MARK FREITAG, KURT GLAESEMANN, DAN KEMP,
     GRANT MERRILL, NORIYUKI MINEZAWA, JONATHAN MULLIN, TAKESHI NAGATA,
     SEAN NEDD, HEATHER NETZLOFF, BOSILJKA NJEGIC, RYAN OLSON, MIKE PAK,
     JIM SHOEMAKER, LYUDMILA SLIPCHENKO, SAROM SOK, JIE SONG,
     TETSUYA TAKETSUGU, SIMON WEBB, SOOHAENG YOO, FEDERICO ZAHARIEV

  ADDITIONAL CODE HAS BEEN PROVIDED BY COLLABORATORS IN OTHER GROUPS:
     IOWA STATE UNIVERSITY:
          JOE IVANIC, LAIMUTIS BYTAUTAS, KLAUS RUEDENBERG
     UNIVERSITY OF TOKYO: KIMIHIKO HIRAO, TAKAHITO NAKAJIMA,
          TAKAO TSUNEDA, MUNEAKI KAMIYA, SUSUMU YANAGISAWA,
          KIYOSHI YAGI, MAHITO CHIBA, SEIKEN TOKURA, NAOAKI KAWAKAMI
     UNIVERSITY OF AARHUS: FRANK JENSEN
     UNIVERSITY OF IOWA: VISVALDAS KAIRYS, HUI LI
     NATIONAL INST. OF STANDARDS AND TECHNOLOGY: WALT STEVENS, DAVID GARMER
     UNIVERSITY OF PISA: BENEDETTA MENNUCCI, JACOPO TOMASI
     UNIVERSITY OF MEMPHIS: HENRY KURTZ, PRAKASHAN KORAMBATH
     UNIVERSITY OF ALBERTA: TOBY ZENG, MARIUSZ KLOBUKOWSKI
     UNIVERSITY OF NEW ENGLAND: MARK SPACKMAN
     MIE UNIVERSITY: HIROAKI UMEDA
     MICHIGAN STATE UNIVERSITY:
          KAROL KOWALSKI, MARTA WLOCH, JEFFREY GOUR, JESSE LUTZ, PIOTR PIECUCH
     UNIVERSITY OF SILESIA: MONIKA MUSIAL, STANISLAW KUCHARSKI
     FACULTES UNIVERSITAIRES NOTRE-DAME DE LA PAIX:
          OLIVIER QUINET, BENOIT CHAMPAGNE
     UNIVERSITY OF CALIFORNIA - SANTA BARBARA: BERNARD KIRTMAN
     INSTITUTE FOR MOLECULAR SCIENCE:
          KAZUYA ISHIMURA, MICHIO KATOUDA, AND SHIGERU NAGASE
     UNIVERSITY OF NOTRE DAME: DAN CHIPMAN
     KYUSHU UNIVERSITY:
          HARUYUKI NAKANO,
          FENG LONG GU, JACEK KORCHOWIEC, MARCIN MAKOWSKI, AND YURIKO AOKI,
          HIROTOSHI MORI AND EISAKU MIYOSHI
     PENNSYLVANIA STATE UNIVERSITY:
          TZVETELIN IORDANOV, CHET SWALINA, JONATHAN SKONE,
          SHARON HAMMES-SCHIFFER
     WASEDA UNIVERSITY:
          MASATO KOBAYASHI, TOMOKO AKAMA, HIROMI NAKAI
     UNIVERSITY OF NEBRASKA:
          PEIFENG SU, DEJUN SI, YALI WANG, HUI LI
     UNIVERSITY OF ZURICH:
          ROBERTO PEVERATI, KIM BALDRIDGE
     N. COPERNICUS UNIVERSITY AND JACKSON STATE UNIVERSITY:
          MARIA BARYSZ

 EXECUTION OF GAMESS BEGUN Mon Dec  5 11:44:37 2011

            ECHO OF THE FIRST FEW INPUT CARDS -
 INPUT CARD> $CONTRL SCFTYP=RHF RUNTYP=ENERGY COORD=ZMT UNITS=ANGS $END                     
 INPUT CARD> $BASIS GBASIS=N31 NGAUSS=6 $END                                                
 INPUT CARD> $DATA                                                                          
 INPUT CARD>butadiene                                                                       
 INPUT CARD>Cnh 2                                                                           
 INPUT CARD>                                                                                
 INPUT CARD>C1                                                                              
 INPUT CARD>C2     1   1.3275159                                                            
 INPUT CARD>C2     2   1.4644072  1   124.2895661                                           
 INPUT CARD>C1     3   1.3275159  2   124.2895661  1   180.0000000  0                       
 INPUT CARD>H1     1   1.0725429  2   121.7924471  3   180.0000000  0                       
 INPUT CARD>H2     1   1.0747620  2   121.8358961  3     0.0000000  0                       
 INPUT CARD>H3     2   1.0766915  3   116.1676641  4     0.0000000  0                       
 INPUT CARD>H3     3   1.0766915  2   116.1676641  1     0.0000000  0                       
 INPUT CARD>H1     4   1.0725429  3   121.7924471  2   180.0000000  0                       
 INPUT CARD>H2     4   1.0747620  3   121.8358961  2     0.0000000  0                       
 INPUT CARD> $END                                                                           
    1000000 WORDS OF MEMORY AVAILABLE

     BASIS OPTIONS
     -------------
     GBASIS=N31          IGAUSS=       6      POLAR=NONE    
     NDFUNC=       0     NFFUNC=       0     DIFFSP=       F
     NPFUNC=       0      DIFFS=       F     BASNAM=        


     RUN TITLE
     ---------
 butadiene                                                                       

 THE POINT GROUP OF THE MOLECULE IS CNH     
 THE ORDER OF THE PRINCIPAL AXIS IS     2

 YOUR FULLY SUBSTITUTED Z-MATRIX IS
 C1  
 C2     1   1.3275159
 C2     2   1.4644072  1  124.2896
 C1     3   1.3275159  2  124.2896  1  180.0000  0
 H1     1   1.0725429  2  121.7924  3  180.0000  0
 H2     1   1.0747620  2  121.8359  3    0.0000  0
 H3     2   1.0766915  3  116.1677  4    0.0000  0
 H3     3   1.0766915  2  116.1677  1    0.0000  0
 H1     4   1.0725429  3  121.7924  2  180.0000  0
 H2     4   1.0747620  3  121.8359  2    0.0000  0

 THE MOMENTS OF INERTIA ARE (AMU-ANGSTROM**2)
 IXX=    11.774   IYY=   113.624   IZZ=   125.398

 ATOM      ATOMIC                      COORDINATES (BOHR)
           CHARGE         X                   Y                   Z
 C1          6.0     3.4738846954       -0.2258719983        0.0000000000
 C1          6.0    -3.4738846954        0.2258719983        0.0000000000
 C2          6.0     1.1628074391        0.7499369296        0.0000000000
 C2          6.0    -1.1628074391       -0.7499369296        0.0000000000
 H1          1.0     5.1277036393        0.9458150584        0.0000000000
 H1          1.0    -5.1277036393       -0.9458150584        0.0000000000
 H2          1.0     3.7896749853       -2.2321772027        0.0000000000
 H2          1.0    -3.7896749853        2.2321772027        0.0000000000
 H3          1.0     0.9271237969        2.7708925473        0.0000000000
 H3          1.0    -0.9271237969       -2.7708925473        0.0000000000

          INTERNUCLEAR DISTANCES (ANGS.)
          ------------------------------

                1 C1         2 C1         3 C2         4 C2         5 H1    

   1 C1      0.0000000    3.6843649    1.3275159 *  2.4692546 *  1.0725429 *
   2 C1      3.6843649    0.0000000    2.4692546 *  1.3275159 *  4.5676807  
   3 C2      1.3275159 *  2.4692546 *  0.0000000    1.4644072 *  2.1006917 *
   4 C2      2.4692546 *  1.3275159 *  1.4644072 *  0.0000000    3.4476255  
   5 H1      1.0725429 *  4.5676807    2.1006917 *  3.4476255    0.0000000  
   6 H1      4.5676807    1.0725429 *  3.4476255    2.1006917 *  5.5184750  
   7 H2      1.0747620 *  4.0578375    2.1030011 *  2.7356017 *  1.8246992 *
   8 H2      4.0578375    1.0747620 *  2.7356017 *  2.1030011 *  4.7677187  
   9 H3      2.0811263 *  2.6902825 *  1.0766915 *  2.1666595 *  2.4235959 *
  10 H3      2.6902825 *  2.0811263 *  2.1666595 *  1.0766915 *  3.7595744  

                6 H1         7 H2         8 H2         9 H3        10 H3    

   1 C1      4.5676807    1.0747620 *  4.0578375    2.0811263 *  2.6902825 *
   2 C1      1.0725429 *  4.0578375    1.0747620 *  2.6902825 *  2.0811263 *
   3 C2      3.4476255    2.1030011 *  2.7356017 *  1.0766915 *  2.1666595 *
   4 C2      2.1006917 *  2.7356017 *  2.1030011 *  2.1666595 *  1.0766915 *
   5 H1      5.5184750    1.8246992 *  4.7677187    2.4235959 *  3.7595744  
   6 H1      0.0000000    4.7677187    1.8246992 *  3.7595744    2.4235959 *
   7 H2      4.7677187    0.0000000    4.6548654    3.0502332    2.5122494 *
   8 H2      1.8246992 *  4.6548654    0.0000000    2.5122494 *  3.0502332  
   9 H3      3.7595744    3.0502332    2.5122494 *  0.0000000    3.0923887  
  10 H3      2.4235959 *  2.5122494 *  3.0502332    3.0923887    0.0000000  

  * ... LESS THAN  3.000


     ATOMIC BASIS SET
     ----------------
 THE CONTRACTED PRIMITIVE FUNCTIONS HAVE BEEN UNNORMALIZED
 THE CONTRACTED BASIS FUNCTIONS ARE NOW NORMALIZED TO UNITY

  SHELL TYPE  PRIMITIVE        EXPONENT          CONTRACTION COEFFICIENT(S)

 C1        

      4   S       1          3047.5248800    0.001834737132
      4   S       2           457.3695180    0.014037322813
      4   S       3           103.9486850    0.068842622264
      4   S       4            29.2101553    0.232184443216
      4   S       5             9.2866630    0.467941348435
      4   S       6             3.1639270    0.362311985337

      5   L       7             7.8682723   -0.119332419775    0.068999066591
      5   L       8             1.8812885   -0.160854151696    0.316423960957
      5   L       9             0.5442493    1.143456437840    0.744308290898

      6   L      10             0.1687145    1.000000000000    1.000000000000

 C2        

     10   S      11          3047.5248800    0.001834737132
     10   S      12           457.3695180    0.014037322813
     10   S      13           103.9486850    0.068842622264
     10   S      14            29.2101553    0.232184443216
     10   S      15             9.2866630    0.467941348435
     10   S      16             3.1639270    0.362311985337

     11   L      17             7.8682723   -0.119332419775    0.068999066591
     11   L      18             1.8812885   -0.160854151696    0.316423960957
     11   L      19             0.5442493    1.143456437840    0.744308290898

     12   L      20             0.1687145    1.000000000000    1.000000000000

 H1        

     15   S      21            18.7311370    0.033494604338
     15   S      22             2.8253944    0.234726953484
     15   S      23             0.6401217    0.813757326146

     16   S      24             0.1612778    1.000000000000

 H2        

     19   S      25            18.7311370    0.033494604338
     19   S      26             2.8253944    0.234726953484
     19   S      27             0.6401217    0.813757326146

     20   S      28             0.1612778    1.000000000000

 H3        

     23   S      29            18.7311370    0.033494604338
     23   S      30             2.8253944    0.234726953484
     23   S      31             0.6401217    0.813757326146

     24   S      32             0.1612778    1.000000000000

 TOTAL NUMBER OF BASIS SET SHELLS             =   24
 NUMBER OF CARTESIAN GAUSSIAN BASIS FUNCTIONS =   48
 NUMBER OF ELECTRONS                          =   30
 CHARGE OF MOLECULE                           =    0
 SPIN MULTIPLICITY                            =    1
 NUMBER OF OCCUPIED ORBITALS (ALPHA)          =   15
 NUMBER OF OCCUPIED ORBITALS (BETA )          =   15
 TOTAL NUMBER OF ATOMS                        =   10
 THE NUCLEAR REPULSION ENERGY IS      104.2096539485

     $CONTRL OPTIONS
     ---------------
 SCFTYP=RHF          RUNTYP=ENERGY       EXETYP=RUN     
 MPLEVL=       0     CITYP =NONE         CCTYP =NONE         VBTYP =NONE    
 DFTTYP=NONE         TDDFT =NONE    
 MULT  =       1     ICHARG=       0     NZVAR =       0     COORD =ZMT     
 PP    =NONE         RELWFN=NONE         LOCAL =NONE         NUMGRD=       F
 ISPHER=      -1     NOSYM =       0     MAXIT =      30     UNITS =ANGS    
 PLTORB=       F     MOLPLT=       F     AIMPAC=       F     FRIEND=        
 NPRINT=       7     IREST =       0     GEOM  =INPUT   
 NORMF =       0     NORMP =       0     ITOL  =      20     ICUT  =       9
 INTTYP=BEST         GRDTYP=BEST         QMTTOL= 1.0E-06

     $SYSTEM OPTIONS
     ---------------
  REPLICATED MEMORY=     1000000 WORDS (ON EVERY NODE).
 DISTRIBUTED MEMDDI=           0 MILLION WORDS IN AGGREGATE,
 MEMDDI DISTRIBUTED OVER   1 PROCESSORS IS           0 WORDS/PROCESSOR.
 TOTAL MEMORY REQUESTED ON EACH PROCESSOR=     1000000 WORDS.
 TIMLIM=      525600.00 MINUTES, OR     365.0 DAYS.
 PARALL= F  BALTYP=  DLB     KDIAG=    0  COREFL= F
 MXSEQ2=     300 MXSEQ3=     150

          ----------------
          PROPERTIES INPUT
          ----------------

     MOMENTS            FIELD           POTENTIAL          DENSITY
 IEMOM =       1   IEFLD =       0   IEPOT =       0   IEDEN =       0
 WHERE =COMASS     WHERE =NUCLEI     WHERE =NUCLEI     WHERE =NUCLEI  
 OUTPUT=BOTH       OUTPUT=BOTH       OUTPUT=BOTH       OUTPUT=BOTH    
 IEMINT=       0   IEFINT=       0                     IEDINT=       0
                                                       MORB  =       0
          EXTRAPOLATION IN EFFECT
          SOSCF IN EFFECT
 ORBITAL PRINTING OPTION: NPREO=     1    48     2     1

     -------------------------------
     INTEGRAL TRANSFORMATION OPTIONS
     -------------------------------
     NWORD  =            0
     CUTOFF = 1.0E-09     MPTRAN =       0
     DIRTRF =       F     AOINTS =DUP     

          ----------------------
          INTEGRAL INPUT OPTIONS
          ----------------------
 NOPK  =       1 NORDER=       0 SCHWRZ=       T

   --- ENCODED Z MATRIX ---
 COORD  TYPE   I   J   K   L   M   N
    1      1    4   2
    2      1    3   4
    3      2    3   4   2
    4      1    1   3
    5      2    1   3   4
    6      3    1   3   4   2
    7      1    6   2
    8      2    6   2   4
    9      3    6   2   4   3
   10      1    8   2
   11      2    8   2   4
   12      3    8   2   4   3
   13      1   10   4
   14      2   10   4   3
   15      3   10   4   3   1
   16      1    9   3
   17      2    9   3   4
   18      3    9   3   4   2
   19      1    5   1
   20      2    5   1   3
   21      3    5   1   3   4
   22      1    7   1
   23      2    7   1   3
   24      3    7   1   3   4

 THE DETERMINANT OF THE G MATRIX IS 10**(   -13)

     ------------------------------------------
     THE POINT GROUP IS CNH, NAXIS= 2, ORDER= 4
     ------------------------------------------

     DIMENSIONS OF THE SYMMETRY SUBSPACES ARE
 AG  =   20     AU  =    4     BU  =   20     BG  =    4

 ..... DONE SETTING UP THE RUN .....
 STEP CPU TIME =     0.01 TOTAL CPU TIME =        0.0 (    0.0 MIN)
 TOTAL WALL CLOCK TIME=        0.3 SECONDS, CPU UTILIZATION IS   3.12%

          ********************
          1 ELECTRON INTEGRALS
          ********************
 ...... END OF ONE-ELECTRON INTEGRALS ......
 STEP CPU TIME =     0.00 TOTAL CPU TIME =        0.0 (    0.0 MIN)
 TOTAL WALL CLOCK TIME=        0.3 SECONDS, CPU UTILIZATION IS   3.12%

          -------------
          GUESS OPTIONS
          -------------
          GUESS =HUCKEL            NORB  =       0          NORDER=       0
          MIX   =       F          PRTMO =       F          PUNMO =       F
          TOLZ  = 1.0E-08          TOLE  = 1.0E-05
          SYMDEN=       F          PURIFY=       F

 INITIAL GUESS ORBITALS GENERATED BY HUCKEL   ROUTINE.
 HUCKEL GUESS REQUIRES     26548 WORDS.

 SYMMETRIES FOR INITIAL GUESS ORBITALS FOLLOW.   BOTH SET(S).
    15 ORBITALS ARE OCCUPIED (    4 CORE ORBITALS).
     5=AG       6=BU       7=AG       8=BU       9=AG      10=BU      11=AU  
    12=BU      13=AG      14=AG      15=BG      16=AU      17=BG      18=BU  
    19=AG      20=BU      21=AG      22=AG      23=AG      24=AG      25=AG  
 ...... END OF INITIAL ORBITAL SELECTION ......
 STEP CPU TIME =     0.01 TOTAL CPU TIME =        0.0 (    0.0 MIN)
 TOTAL WALL CLOCK TIME=        0.4 SECONDS, CPU UTILIZATION IS   5.56%

                    ----------------------
                    AO INTEGRAL TECHNOLOGY
                    ----------------------
     S,P,L SHELL ROTATED AXIS INTEGRALS, REPROGRAMMED BY
        KAZUYA ISHIMURA (IMS) AND JOSE SIERRA (SYNSTAR).
     S,P,D,L SHELL ROTATED AXIS INTEGRALS PROGRAMMED BY
        KAZUYA ISHIMURA (INSTITUTE FOR MOLECULAR SCIENCE).
     S,P,D,F,G SHELL TO TOTAL QUARTET ANGULAR MOMENTUM SUM 5,
        ERIC PROGRAM BY GRAHAM FLETCHER (ELORET AND NASA ADVANCED
        SUPERCOMPUTING DIVISION, AMES RESEARCH CENTER).
     S,P,D,F,G,L SHELL GENERAL RYS QUADRATURE PROGRAMMED BY
        MICHEL DUPUIS (PACIFIC NORTHWEST NATIONAL LABORATORY).

          --------------------
          2 ELECTRON INTEGRALS
          --------------------

 THE -PK- OPTION IS OFF, THE INTEGRALS ARE NOT IN SUPERMATRIX FORM.
 STORING   15000 INTEGRALS/RECORD ON DISK, USING 12 BYTES/INTEGRAL.
 TWO ELECTRON INTEGRAL EVALUATION REQUIRES   89656 WORDS OF MEMORY.
 SCHWARZ INEQUALITY OVERHEAD:      1173 INTEGRALS, T=        0.01
 II,JST,KST,LST =  1  1  1  1 NREC =         1 INTLOC =    1
 II,JST,KST,LST =  2  1  1  1 NREC =         1 INTLOC =    1
 II,JST,KST,LST =  3  1  1  1 NREC =         1 INTLOC =    1
 II,JST,KST,LST =  4  1  1  1 NREC =         1 INTLOC =    1
 II,JST,KST,LST =  5  1  1  1 NREC =         1 INTLOC =    3
 II,JST,KST,LST =  6  1  1  1 NREC =         1 INTLOC =  266
 II,JST,KST,LST =  7  1  1  1 NREC =         1 INTLOC = 3434
 II,JST,KST,LST =  8  1  1  1 NREC =         1 INTLOC = 3434
 II,JST,KST,LST =  9  1  1  1 NREC =         1 INTLOC = 3434
 II,JST,KST,LST = 10  1  1  1 NREC =         1 INTLOC = 3434
 II,JST,KST,LST = 11  1  1  1 NREC =         1 INTLOC = 5334
 II,JST,KST,LST = 12  1  1  1 NREC =         2 INTLOC = 6761
 II,JST,KST,LST = 13  1  1  1 NREC =         4 INTLOC =14544
 II,JST,KST,LST = 14  1  1  1 NREC =         4 INTLOC =14544
 II,JST,KST,LST = 15  1  1  1 NREC =         4 INTLOC =14544
 II,JST,KST,LST = 16  1  1  1 NREC =         5 INTLOC =11787
 II,JST,KST,LST = 17  1  1  1 NREC =         6 INTLOC =14601
 II,JST,KST,LST = 18  1  1  1 NREC =         6 INTLOC =14601
 II,JST,KST,LST = 19  1  1  1 NREC =         6 INTLOC =14601
 II,JST,KST,LST = 20  1  1  1 NREC =         8 INTLOC = 3200
 II,JST,KST,LST = 21  1  1  1 NREC =         9 INTLOC =12924
 II,JST,KST,LST = 22  1  1  1 NREC =         9 INTLOC =12924
 II,JST,KST,LST = 23  1  1  1 NREC =         9 INTLOC =12924
 II,JST,KST,LST = 24  1  1  1 NREC =        11 INTLOC =11185
 SCHWARZ INEQUALITY TEST SKIPPED        2927 INTEGRAL BLOCKS.
 TOTAL NUMBER OF NONZERO TWO-ELECTRON INTEGRALS =              194892
         13 INTEGRAL RECORDS WERE STORED ON DISK FILE  8.
  ...... END OF TWO-ELECTRON INTEGRALS .....
 STEP CPU TIME =     0.09 TOTAL CPU TIME =        0.1 (    0.0 MIN)
 TOTAL WALL CLOCK TIME=        0.5 SECONDS, CPU UTILIZATION IS  23.40%

          --------------------------
                 RHF SCF CALCULATION
          --------------------------

     NUCLEAR ENERGY =       104.2096539485
     MAXIT =   30     NPUNCH=    2
     EXTRAP=T  DAMP=F  SHIFT=F  RSTRCT=F  DIIS=F  DEM=F  SOSCF=T
     DENSITY MATRIX CONV=  1.00E-05
     SOSCF WILL OPTIMIZE     495 ORBITAL ROTATIONS, SOGTOL=   0.250
     MEMORY REQUIRED FOR RHF ITERS=     48780 WORDS.

 ITER EX DEM     TOTAL ENERGY        E CHANGE  DENSITY CHANGE     ORB. GRAD
   1  0  0     -154.5850028442  -154.5850028442   0.167701509   0.000000000
          ---------------START SECOND ORDER SCF---------------
   2  1  0     -154.8475509296    -0.2625480854   0.069066292   0.048295547
   3  2  0     -154.8621964799    -0.0146455503   0.020636020   0.009107832
   4  3  0     -154.8644732087    -0.0022767288   0.004917461   0.002242250
   5  4  0     -154.8645651270    -0.0000919183   0.001342499   0.000893541
   6  5  0     -154.8645760344    -0.0000109074   0.000244264   0.000115772
   7  6  0     -154.8645763268    -0.0000002924   0.000117898   0.000057582
   8  7  0     -154.8645763759    -0.0000000491   0.000022824   0.000010578
   9  8  0     -154.8645763779    -0.0000000021   0.000008372   0.000003456
  10  9  0     -154.8645763781    -0.0000000002   0.000001224   0.000000552

          -----------------
          DENSITY CONVERGED
          -----------------
     TIME TO FORM FOCK OPERATORS=       0.0 SECONDS (       0.0 SEC/ITER)
     TIME TO SOLVE SCF EQUATIONS=       0.0 SECONDS (       0.0 SEC/ITER)

 FINAL RHF ENERGY IS     -154.8645763781 AFTER  10 ITERATIONS

          ------------
          EIGENVECTORS
          ------------

                      1          2          3          4          5
                  -11.2398   -11.2390   -11.2271   -11.2271    -1.0947
                     AG         BU         AG         BU         AG  
    1  C  1  S    0.046382   0.050334   0.702831   0.702580  -0.091022
    2  C  1  S    0.000437   0.000707   0.017399   0.017510   0.178418
    3  C  1  X    0.000168   0.000073  -0.000184  -0.000140  -0.078083
    4  C  1  Y   -0.000051  -0.000038   0.000055   0.000034   0.024890
    5  C  1  Z   -0.000000   0.000000  -0.000000   0.000000   0.000000
    6  C  1  S    0.004548   0.003783  -0.010590  -0.012201   0.135324
    7  C  1  X   -0.002219  -0.001984   0.000725   0.001756  -0.007983
    8  C  1  Y    0.000253  -0.000176  -0.000411  -0.000354   0.005548
    9  C  1  Z   -0.000000   0.000000  -0.000000   0.000000   0.000000
   10  C  2  S    0.046382  -0.050334   0.702831  -0.702580  -0.091022
   11  C  2  S    0.000437  -0.000707   0.017399  -0.017510   0.178418
   12  C  2  X   -0.000168   0.000073   0.000184  -0.000140   0.078083
   13  C  2  Y    0.000051  -0.000038  -0.000055   0.000034  -0.024890
   14  C  2  Z   -0.000000   0.000000  -0.000000   0.000000   0.000000
   15  C  2  S    0.004548  -0.003783  -0.010590   0.012201   0.135324
   16  C  2  X    0.002219  -0.001984  -0.000725   0.001756   0.007983
   17  C  2  Y   -0.000253  -0.000176   0.000411  -0.000354  -0.005548
   18  C  2  Z   -0.000000   0.000000  -0.000000   0.000000   0.000000
   19  C  3  S    0.702757   0.702659  -0.046807  -0.050758  -0.133339
   20  C  3  S    0.017141   0.018169  -0.001813  -0.001879   0.266490
   21  C  3  X    0.000182  -0.000060  -0.000127  -0.000312   0.002858
   22  C  3  Y   -0.000110  -0.000270   0.000060   0.000130  -0.052002
   23  C  3  Z   -0.000000   0.000000  -0.000000   0.000000   0.000000
   24  C  3  S   -0.009099  -0.016494   0.004311   0.006039   0.160887
   25  C  3  X   -0.002312   0.001868   0.001293   0.002104  -0.018592
   26  C  3  Y    0.001457   0.002709  -0.000205  -0.001258   0.007882
   27  C  3  Z   -0.000000   0.000000  -0.000000   0.000000   0.000000
   28  C  4  S    0.702757  -0.702659  -0.046807   0.050758  -0.133339
   29  C  4  S    0.017141  -0.018169  -0.001813   0.001879   0.266490
   30  C  4  X   -0.000182  -0.000060   0.000127  -0.000312  -0.002858
   31  C  4  Y    0.000110  -0.000270  -0.000060   0.000130   0.052002
   32  C  4  Z   -0.000000   0.000000  -0.000000   0.000000   0.000000
   33  C  4  S   -0.009099   0.016494   0.004311  -0.006039   0.160887
   34  C  4  X    0.002312   0.001868  -0.001293   0.002104   0.018592
   35  C  4  Y   -0.001457   0.002709   0.000205  -0.001258  -0.007882
   36  C  4  Z   -0.000000   0.000000  -0.000000   0.000000   0.000000
   37  H  5  S   -0.000071  -0.000061  -0.000149  -0.000157   0.040747
   38  H  5  S    0.000433   0.000284   0.001977   0.001713   0.003146
   39  H  6  S   -0.000071   0.000061  -0.000149   0.000157   0.040747
   40  H  6  S    0.000433  -0.000284   0.001977  -0.001713   0.003146
   41  H  7  S   -0.000202  -0.000209  -0.000176  -0.000075   0.045428
   42  H  7  S   -0.000237  -0.000256   0.001957   0.001936   0.008107
   43  H  8  S   -0.000202   0.000209  -0.000176   0.000075   0.045428
   44  H  8  S   -0.000237   0.000256   0.001957  -0.001936   0.008107
   45  H  9  S   -0.000352  -0.000048  -0.000155  -0.000059   0.066691
   46  H  9  S    0.001145   0.001549  -0.000360   0.000028   0.006811
   47  H 10  S   -0.000352   0.000048  -0.000155   0.000059   0.066691
   48  H 10  S    0.001145  -0.001549  -0.000360  -0.000028   0.006811

                      6          7          8          9         10
                   -1.0066    -0.8252    -0.7559    -0.6464    -0.6372
                     BU         AG         BU         BU         AG  
    1  C  1  S   -0.128027  -0.108394   0.049823  -0.019498   0.007210
    2  C  1  S    0.251142   0.216940  -0.099070   0.038294  -0.013942
    3  C  1  X   -0.068106   0.089293  -0.083905   0.291526  -0.002338
    4  C  1  Y    0.034274  -0.010020   0.125146   0.023712   0.258638
    5  C  1  Z   -0.000000   0.000000  -0.000000  -0.000000   0.000000
    6  C  1  S    0.189810   0.201464  -0.102700   0.071368  -0.024153
    7  C  1  X   -0.005214   0.035101  -0.026040   0.104792   0.006091
    8  C  1  Y   -0.007528  -0.003180   0.037733   0.024241   0.107349
    9  C  1  Z   -0.000000   0.000000  -0.000000  -0.000000   0.000000
   10  C  2  S    0.128027  -0.108394  -0.049823   0.019498   0.007210
   11  C  2  S   -0.251142   0.216940   0.099070  -0.038294  -0.013942
   12  C  2  X   -0.068106  -0.089293  -0.083905   0.291526   0.002338
   13  C  2  Y    0.034274   0.010020   0.125146   0.023712  -0.258638
   14  C  2  Z   -0.000000   0.000000  -0.000000  -0.000000   0.000000
   15  C  2  S   -0.189810   0.201464   0.102700  -0.071368  -0.024153
   16  C  2  X   -0.005214  -0.035101  -0.026040   0.104792  -0.006091
   17  C  2  Y   -0.007528   0.003180   0.037733   0.024241  -0.107349
   18  C  2  Z   -0.000000   0.000000  -0.000000  -0.000000   0.000000
   19  C  3  S   -0.086951   0.073022  -0.083709   0.032528  -0.008149
   20  C  3  S    0.173741  -0.150883   0.169357  -0.069675   0.015190
   21  C  3  X    0.140496   0.178034   0.007299  -0.150124   0.176304
   22  C  3  Y   -0.021981   0.009589   0.180425   0.174030   0.179093
   23  C  3  Z   -0.000000   0.000000  -0.000000  -0.000000   0.000000
   24  C  3  S    0.119735  -0.136728   0.176333  -0.051347   0.018009
   25  C  3  X    0.025498   0.047550  -0.008468  -0.050071   0.052422
   26  C  3  Y    0.008980  -0.011104   0.066018   0.057128   0.072027
   27  C  3  Z   -0.000000   0.000000  -0.000000  -0.000000   0.000000
   28  C  4  S    0.086951   0.073022   0.083709  -0.032528  -0.008149
   29  C  4  S   -0.173741  -0.150883  -0.169357   0.069675   0.015190
   30  C  4  X    0.140496  -0.178034   0.007299  -0.150124  -0.176304
   31  C  4  Y   -0.021981  -0.009589   0.180425   0.174030  -0.179093
   32  C  4  Z   -0.000000   0.000000  -0.000000  -0.000000   0.000000
   33  C  4  S   -0.119735  -0.136728  -0.176333   0.051347   0.018009
   34  C  4  X    0.025498  -0.047550  -0.008468  -0.050071  -0.052422
   35  C  4  Y    0.008980   0.011104   0.066018   0.057128  -0.072027
   36  C  4  Z   -0.000000   0.000000  -0.000000  -0.000000   0.000000
   37  H  5  S    0.076300   0.124479  -0.046574   0.169118   0.077345
   38  H  5  S    0.021173   0.051045  -0.021425   0.108161   0.049468
   39  H  6  S   -0.076300   0.124479   0.046574  -0.169118   0.077345
   40  H  6  S   -0.021173   0.051045   0.021425  -0.108161   0.049468
   41  H  7  S    0.071517   0.104912  -0.118033   0.034918  -0.157321
   42  H  7  S    0.010557   0.042984  -0.065705   0.026522  -0.102810
   43  H  8  S   -0.071517   0.104912   0.118033  -0.034918  -0.157321
   44  H  8  S   -0.010557   0.042984   0.065705  -0.026522  -0.102810
   45  H  9  S    0.045531  -0.067892   0.170700   0.074951   0.097490
   46  H  9  S    0.004769  -0.019503   0.085035   0.055279   0.061166
   47  H 10  S   -0.045531  -0.067892  -0.170700  -0.074951   0.097490
   48  H 10  S   -0.004769  -0.019503  -0.085035  -0.055279   0.061166

                     11         12         13         14         15
                   -0.5585    -0.5416    -0.4850    -0.4425    -0.3204
                     AG         BU         AG         AU         BG  
    1  C  1  S    0.019316  -0.004993   0.002796  -0.000000  -0.000000
    2  C  1  S   -0.046304   0.011417  -0.008450  -0.000000  -0.000000
    3  C  1  X    0.303078   0.019636  -0.079429  -0.000000  -0.000000
    4  C  1  Y   -0.041711   0.289531  -0.171067  -0.000000  -0.000000
    5  C  1  Z    0.000000   0.000000   0.000000   0.224020   0.308605
    6  C  1  S   -0.022941  -0.000016   0.025632  -0.000000  -0.000000
    7  C  1  X    0.105848   0.026784  -0.077082  -0.000000  -0.000000
    8  C  1  Y   -0.013761   0.160520  -0.111614  -0.000000  -0.000000
    9  C  1  Z    0.000000   0.000000   0.000000   0.165255   0.277142
   10  C  2  S    0.019316   0.004993   0.002796  -0.000000  -0.000000
   11  C  2  S   -0.046304  -0.011417  -0.008450  -0.000000  -0.000000
   12  C  2  X   -0.303078   0.019636   0.079429  -0.000000  -0.000000
   13  C  2  Y    0.041711   0.289531   0.171067  -0.000000  -0.000000
   14  C  2  Z    0.000000   0.000000   0.000000   0.224020  -0.308605
   15  C  2  S   -0.022941   0.000016   0.025632  -0.000000  -0.000000
   16  C  2  X   -0.105848   0.026784   0.077082  -0.000000  -0.000000
   17  C  2  Y    0.013761   0.160520   0.111614  -0.000000  -0.000000
   18  C  2  Z    0.000000   0.000000   0.000000   0.165255  -0.277142
   19  C  3  S    0.000694   0.019414   0.015896  -0.000000  -0.000000
   20  C  3  S   -0.004587  -0.039725  -0.035949  -0.000000  -0.000000
   21  C  3  X   -0.272145   0.096975   0.151260  -0.000000  -0.000000
   22  C  3  Y    0.145084  -0.123936   0.258454  -0.000000  -0.000000
   23  C  3  Z    0.000000   0.000000   0.000000   0.297680   0.235435
   24  C  3  S    0.027470  -0.049240  -0.050496  -0.000000  -0.000000
   25  C  3  X   -0.094089   0.014671   0.038073  -0.000000  -0.000000
   26  C  3  Y    0.063727  -0.090261   0.185904  -0.000000  -0.000000
   27  C  3  Z    0.000000   0.000000   0.000000   0.208101   0.210925
   28  C  4  S    0.000694  -0.019414   0.015896  -0.000000  -0.000000
   29  C  4  S   -0.004587   0.039725  -0.035949  -0.000000  -0.000000
   30  C  4  X    0.272145   0.096975  -0.151260  -0.000000  -0.000000
   31  C  4  Y   -0.145084  -0.123936  -0.258454  -0.000000  -0.000000
   32  C  4  Z    0.000000   0.000000   0.000000   0.297680  -0.235435
   33  C  4  S    0.027470   0.049240  -0.050496  -0.000000  -0.000000
   34  C  4  X    0.094089   0.014671  -0.038073  -0.000000  -0.000000
   35  C  4  Y   -0.063727  -0.090261  -0.185904  -0.000000  -0.000000
   36  C  4  Z    0.000000   0.000000   0.000000   0.208101  -0.210925
   37  H  5  S    0.125934   0.133365  -0.132376  -0.000000  -0.000000
   38  H  5  S    0.107522   0.093619  -0.099175  -0.000000  -0.000000
   39  H  6  S    0.125934  -0.133365  -0.132376  -0.000000  -0.000000
   40  H  6  S    0.107522  -0.093619  -0.099175  -0.000000  -0.000000
   41  H  7  S    0.039605  -0.187951   0.125268  -0.000000  -0.000000
   42  H  7  S    0.039917  -0.136469   0.108889  -0.000000  -0.000000
   43  H  8  S    0.039605   0.187951   0.125268  -0.000000  -0.000000
   44  H  8  S    0.039917   0.136469   0.108889  -0.000000  -0.000000
   45  H  9  S    0.119962  -0.115024   0.168691  -0.000000  -0.000000
   46  H  9  S    0.093802  -0.071399   0.131956  -0.000000  -0.000000
   47  H 10  S    0.119962   0.115024   0.168691  -0.000000  -0.000000
   48  H 10  S    0.093802   0.071399   0.131956  -0.000000  -0.000000

                     16         17         18         19         20
                    0.1266     0.2572     0.2615     0.2692     0.2781
                     AU         BG         BU         AG         BU  
    1  C  1  S    0.000000   0.000000  -0.027335  -0.050399  -0.086295
    2  C  1  S    0.000000   0.000000   0.026736   0.037813   0.099084
    3  C  1  X    0.000000   0.000000  -0.014013   0.145724   0.099976
    4  C  1  Y    0.000000   0.000000  -0.161045  -0.019240   0.013514
    5  C  1  Z    0.295079  -0.166720  -0.000000   0.000000   0.000000
    6  C  1  S    0.000000   0.000000   0.453698   1.028491   1.537971
    7  C  1  X    0.000000   0.000000   0.032536   0.511506   0.499730
    8  C  1  Y    0.000000   0.000000  -0.482031  -0.217102   0.112582
    9  C  1  Z    0.518973  -0.567904  -0.000000   0.000000   0.000000
   10  C  2  S    0.000000   0.000000   0.027335  -0.050399   0.086295
   11  C  2  S    0.000000   0.000000  -0.026736   0.037813  -0.099084
   12  C  2  X    0.000000   0.000000  -0.014013  -0.145724   0.099976
   13  C  2  Y    0.000000   0.000000  -0.161045   0.019240   0.013514
   14  C  2  Z    0.295079   0.166720  -0.000000   0.000000   0.000000
   15  C  2  S    0.000000   0.000000  -0.453698   1.028491  -1.537971
   16  C  2  X    0.000000   0.000000   0.032536  -0.511506   0.499730
   17  C  2  Y    0.000000   0.000000  -0.482031   0.217102   0.112582
   18  C  2  Z    0.518973   0.567904  -0.000000   0.000000   0.000000
   19  C  3  S    0.000000   0.000000   0.033939  -0.039767  -0.013113
   20  C  3  S    0.000000   0.000000  -0.034341   0.037199  -0.010818
   21  C  3  X    0.000000   0.000000  -0.012086  -0.018574  -0.032996
   22  C  3  Y    0.000000   0.000000  -0.170020   0.139070   0.056905
   23  C  3  Z   -0.225496   0.315175  -0.000000   0.000000   0.000000
   24  C  3  S    0.000000   0.000000  -0.494246   0.908897   0.618806
   25  C  3  X    0.000000   0.000000  -0.047238  -0.076311  -0.524191
   26  C  3  Y    0.000000   0.000000  -0.516828   0.670611  -0.053720
   27  C  3  Z   -0.372729   0.813450  -0.000000   0.000000   0.000000
   28  C  4  S    0.000000   0.000000  -0.033939  -0.039767   0.013113
   29  C  4  S    0.000000   0.000000   0.034341   0.037199   0.010818
   30  C  4  X    0.000000   0.000000  -0.012086   0.018574  -0.032996
   31  C  4  Y    0.000000   0.000000  -0.170020  -0.139070   0.056905
   32  C  4  Z   -0.225496  -0.315175  -0.000000   0.000000   0.000000
   33  C  4  S    0.000000   0.000000   0.494246   0.908897  -0.618806
   34  C  4  X    0.000000   0.000000  -0.047238   0.076311  -0.524191
   35  C  4  Y    0.000000   0.000000  -0.516828  -0.670611  -0.053720
   36  C  4  Z   -0.372729  -0.813450  -0.000000   0.000000   0.000000
   37  H  5  S    0.000000   0.000000   0.010290  -0.034132  -0.019947
   38  H  5  S    0.000000   0.000000   0.240442  -0.934485  -1.235712
   39  H  6  S    0.000000   0.000000  -0.010290  -0.034132   0.019947
   40  H  6  S    0.000000   0.000000  -0.240442  -0.934485   1.235712
   41  H  7  S    0.000000   0.000000  -0.018509   0.013996  -0.015040
   42  H  7  S    0.000000   0.000000  -0.961765  -0.637859  -0.682500
   43  H  8  S    0.000000   0.000000   0.018509   0.013996   0.015040
   44  H  8  S    0.000000   0.000000   0.961765  -0.637859   0.682500
   45  H  9  S    0.000000   0.000000   0.040865   0.020052  -0.035584
   46  H  9  S    0.000000   0.000000   1.110146  -1.026688  -0.376697
   47  H 10  S    0.000000   0.000000  -0.040865   0.020052   0.035584
   48  H 10  S    0.000000   0.000000  -1.110146  -1.026688   0.376697

                     21         22         23         24         25
                    0.3315     0.3486     0.3618     0.4946     0.4959
                     AG         BU         AG         AG         BU  
    1  C  1  S    0.059514   0.013740   0.047646  -0.040487   0.058365
    2  C  1  S   -0.052174  -0.016462  -0.038335  -0.076098   0.011689
    3  C  1  X    0.006494  -0.065403  -0.120697   0.031024  -0.024417
    4  C  1  Y    0.186312  -0.145877  -0.147380   0.057042   0.092918
    5  C  1  Z   -0.000000  -0.000000   0.000000  -0.000000   0.000000
    6  C  1  S   -1.152841  -0.087242  -0.884174   2.961581  -1.414815
    7  C  1  X    0.279431  -0.356495  -0.399711  -2.279108   1.765569
    8  C  1  Y    0.764116  -0.916288  -1.055658   0.784845   0.424702
    9  C  1  Z   -0.000000  -0.000000   0.000000  -0.000000   0.000000
   10  C  2  S    0.059514  -0.013740   0.047646  -0.040487  -0.058365
   11  C  2  S   -0.052174   0.016462  -0.038335  -0.076098  -0.011689
   12  C  2  X   -0.006494  -0.065403   0.120697  -0.031024  -0.024417
   13  C  2  Y   -0.186312  -0.145877   0.147380  -0.057042   0.092918
   14  C  2  Z   -0.000000  -0.000000   0.000000  -0.000000   0.000000
   15  C  2  S   -1.152841   0.087242  -0.884174   2.961581   1.414815
   16  C  2  X   -0.279431  -0.356495   0.399711   2.279108   1.765569
   17  C  2  Y   -0.764116  -0.916288   1.055658  -0.784845   0.424702
   18  C  2  Z   -0.000000  -0.000000   0.000000  -0.000000   0.000000
   19  C  3  S   -0.042700  -0.082521  -0.041107   0.045198  -0.097318
   20  C  3  S    0.056614   0.108259   0.023832  -0.031193   0.037536
   21  C  3  X    0.020903  -0.122742   0.062258  -0.079731   0.056111
   22  C  3  Y    0.059860   0.028267   0.114388   0.133673  -0.208356
   23  C  3  Z   -0.000000  -0.000000   0.000000  -0.000000   0.000000
   24  C  3  S    0.711740   1.245294   1.242890  -2.469341   3.540579
   25  C  3  X    0.136481  -0.336958   0.217343  -2.384033  -0.727970
   26  C  3  Y    0.030453   0.448365   0.934865   1.936406  -1.794410
   27  C  3  Z   -0.000000  -0.000000   0.000000  -0.000000   0.000000
   28  C  4  S   -0.042700   0.082521  -0.041107   0.045198   0.097318
   29  C  4  S    0.056614  -0.108259   0.023832  -0.031193  -0.037536
   30  C  4  X   -0.020903  -0.122742  -0.062258   0.079731   0.056111
   31  C  4  Y   -0.059860   0.028267  -0.114388  -0.133673  -0.208356
   32  C  4  Z   -0.000000  -0.000000   0.000000  -0.000000   0.000000
   33  C  4  S    0.711740  -1.245294   1.242890  -2.469341  -3.540579
   34  C  4  X   -0.136481  -0.336958  -0.217343   2.384033  -0.727970
   35  C  4  Y   -0.030453   0.448365  -0.934865  -1.936406  -1.794410
   36  C  4  Z   -0.000000  -0.000000   0.000000  -0.000000   0.000000
   37  H  5  S   -0.018833   0.031141  -0.030638   0.106633   0.018159
   38  H  5  S   -0.314471   1.096569   1.477819   0.334063  -0.803198
   39  H  6  S   -0.018833  -0.031141  -0.030638   0.106633  -0.018159
   40  H  6  S   -0.314471  -1.096569   1.477819   0.334063   0.803198
   41  H  7  S    0.038375  -0.034404   0.038472   0.029024  -0.113955
   42  H  7  S    1.522958  -0.911675  -0.551459   0.288460   0.683433
   43  H  8  S    0.038375   0.034404   0.038472   0.029024   0.113955
   44  H  8  S    1.522958   0.911675  -0.551459   0.288460  -0.683433
   45  H  9  S   -0.052853   0.003629   0.021573   0.010355   0.003641
   46  H  9  S   -0.587754  -1.081832  -1.260540  -1.320931   0.626256
   47  H 10  S   -0.052853  -0.003629   0.021573   0.010355  -0.003641
   48  H 10  S   -0.587754   1.081832  -1.260540  -1.320931  -0.626256

                     26         27         28         29         30
                    0.5786     0.6996     0.7303     0.7611     0.8202
                     BU         BU         AG         AU         BG  
    1  C  1  S    0.036423  -0.006689  -0.008031  -0.000000   0.000000
    2  C  1  S   -0.088663   0.268852  -0.084879  -0.000000   0.000000
    3  C  1  X    0.168322  -0.443771   0.147012  -0.000000   0.000000
    4  C  1  Y   -0.067665   0.016775  -0.345828  -0.000000   0.000000
    5  C  1  Z    0.000000  -0.000000  -0.000000   0.515582   0.770024
    6  C  1  S   -1.601642  -0.120073  -0.544559  -0.000000   0.000000
    7  C  1  X    1.364817   0.521891  -0.210998  -0.000000   0.000000
    8  C  1  Y   -1.596644  -0.287881   0.665628  -0.000000   0.000000
    9  C  1  Z    0.000000  -0.000000  -0.000000  -0.428407  -0.739138
   10  C  2  S   -0.036423   0.006689  -0.008031  -0.000000   0.000000
   11  C  2  S    0.088663  -0.268852  -0.084879  -0.000000   0.000000
   12  C  2  X    0.168322  -0.443771  -0.147012  -0.000000   0.000000
   13  C  2  Y   -0.067665   0.016775   0.345828  -0.000000   0.000000
   14  C  2  Z    0.000000  -0.000000  -0.000000   0.515582  -0.770024
   15  C  2  S    1.601642   0.120073  -0.544559  -0.000000   0.000000
   16  C  2  X    1.364817   0.521891   0.210998  -0.000000   0.000000
   17  C  2  Y   -1.596644  -0.287881  -0.665628  -0.000000   0.000000
   18  C  2  Z    0.000000  -0.000000  -0.000000  -0.428407   0.739138
   19  C  3  S    0.001129   0.058874  -0.009203  -0.000000   0.000000
   20  C  3  S   -0.000533  -0.009738  -0.075438  -0.000000   0.000000
   21  C  3  X    0.192238   0.394596  -0.383184  -0.000000   0.000000
   22  C  3  Y    0.106579   0.009159  -0.109625  -0.000000   0.000000
   23  C  3  Z    0.000000  -0.000000  -0.000000   0.545868   0.125559
   24  C  3  S    0.170906  -0.208951   0.288007  -0.000000   0.000000
   25  C  3  X    3.098330   0.011466   0.835774  -0.000000   0.000000
   26  C  3  Y    1.006734   0.598599  -0.129157  -0.000000   0.000000
   27  C  3  Z    0.000000  -0.000000  -0.000000  -0.392411  -0.078898
   28  C  4  S   -0.001129  -0.058874  -0.009203  -0.000000   0.000000
   29  C  4  S    0.000533   0.009738  -0.075438  -0.000000   0.000000
   30  C  4  X    0.192238   0.394596   0.383184  -0.000000   0.000000
   31  C  4  Y    0.106579   0.009159   0.109625  -0.000000   0.000000
   32  C  4  Z    0.000000  -0.000000  -0.000000   0.545868  -0.125559
   33  C  4  S   -0.170906   0.208951   0.288007  -0.000000   0.000000
   34  C  4  X    3.098330   0.011466  -0.835774  -0.000000   0.000000
   35  C  4  Y    1.006734   0.598599   0.129157  -0.000000   0.000000
   36  C  4  Z    0.000000  -0.000000  -0.000000  -0.392411   0.078898
   37  H  5  S   -0.088500  -0.226849  -0.164138  -0.000000   0.000000
   38  H  5  S   -0.009733   0.235576   0.018651  -0.000000   0.000000
   39  H  6  S    0.088500   0.226849  -0.164138  -0.000000   0.000000
   40  H  6  S    0.009733  -0.235576   0.018651  -0.000000   0.000000
   41  H  7  S   -0.041313   0.126800   0.284256  -0.000000   0.000000
   42  H  7  S   -1.180992  -0.247318   0.235114  -0.000000   0.000000
   43  H  8  S    0.041313  -0.126800   0.284256  -0.000000   0.000000
   44  H  8  S    1.180992   0.247318   0.235114  -0.000000   0.000000
   45  H  9  S    0.050099  -0.173485  -0.154715  -0.000000   0.000000
   46  H  9  S   -0.625232  -0.229771   0.126737  -0.000000   0.000000
   47  H 10  S   -0.050099   0.173485  -0.154715  -0.000000   0.000000
   48  H 10  S    0.625232   0.229771   0.126737  -0.000000   0.000000

                     31         32         33         34         35
                    0.8463     0.8727     0.9124     0.9271     0.9494
                     AG         BU         BG         AU         BU  
    1  C  1  S   -0.002944   0.000900   0.000000  -0.000000  -0.063052
    2  C  1  S   -0.628166  -0.382845   0.000000  -0.000000  -0.497622
    3  C  1  X    0.162663   0.038046   0.000000  -0.000000  -0.338850
    4  C  1  Y    0.003075  -0.308879   0.000000  -0.000000   0.221937
    5  C  1  Z   -0.000000   0.000000   0.185417  -0.598728   0.000000
    6  C  1  S    0.363616   0.293426   0.000000  -0.000000   1.585439
    7  C  1  X    0.333978   0.414531   0.000000  -0.000000   0.172187
    8  C  1  Y   -0.350732   0.700644   0.000000  -0.000000  -0.245018
    9  C  1  Z   -0.000000   0.000000  -0.471049   0.809583   0.000000
   10  C  2  S   -0.002944  -0.000900   0.000000  -0.000000   0.063052
   11  C  2  S   -0.628166   0.382845   0.000000  -0.000000   0.497622
   12  C  2  X   -0.162663   0.038046   0.000000  -0.000000  -0.338850
   13  C  2  Y   -0.003075  -0.308879   0.000000  -0.000000   0.221937
   14  C  2  Z   -0.000000   0.000000  -0.185417  -0.598728   0.000000
   15  C  2  S    0.363616  -0.293426   0.000000  -0.000000  -1.585439
   16  C  2  X   -0.333978   0.414531   0.000000  -0.000000   0.172187
   17  C  2  Y    0.350732   0.700644   0.000000  -0.000000  -0.245018
   18  C  2  Z   -0.000000   0.000000   0.471049   0.809583   0.000000
   19  C  3  S   -0.019424  -0.062915   0.000000  -0.000000   0.046505
   20  C  3  S   -0.879436  -0.205592   0.000000  -0.000000  -0.354913
   21  C  3  X    0.115015  -0.312120   0.000000  -0.000000  -0.271904
   22  C  3  Y    0.127145  -0.302680   0.000000  -0.000000   0.237504
   23  C  3  Z   -0.000000   0.000000  -0.796260   0.559702   0.000000
   24  C  3  S    1.439118   0.949683   0.000000  -0.000000   0.005920
   25  C  3  X    0.361273   0.130053   0.000000  -0.000000  -0.351425
   26  C  3  Y   -0.153416   0.139264   0.000000  -0.000000  -0.234761
   27  C  3  Z   -0.000000   0.000000   1.314345  -0.677139   0.000000
   28  C  4  S   -0.019424   0.062915   0.000000  -0.000000  -0.046505
   29  C  4  S   -0.879436   0.205592   0.000000  -0.000000   0.354913
   30  C  4  X   -0.115015  -0.312120   0.000000  -0.000000  -0.271904
   31  C  4  Y   -0.127145  -0.302680   0.000000  -0.000000   0.237504
   32  C  4  Z   -0.000000   0.000000   0.796260   0.559702   0.000000
   33  C  4  S    1.439118  -0.949683   0.000000  -0.000000  -0.005920
   34  C  4  X   -0.361273   0.130053   0.000000  -0.000000  -0.351425
   35  C  4  Y    0.153416   0.139264   0.000000  -0.000000  -0.234761
   36  C  4  Z   -0.000000   0.000000  -1.314345  -0.677139   0.000000
   37  H  5  S   -0.187224  -0.290621   0.000000  -0.000000  -0.310046
   38  H  5  S   -0.124732  -0.409049   0.000000  -0.000000  -0.142108
   39  H  6  S   -0.187224   0.290621   0.000000  -0.000000   0.310046
   40  H  6  S   -0.124732   0.409049   0.000000  -0.000000   0.142108
   41  H  7  S   -0.248383   0.049124   0.000000  -0.000000  -0.470899
   42  H  7  S   -0.280380   0.233438   0.000000  -0.000000  -0.208172
   43  H  8  S   -0.248383  -0.049124   0.000000  -0.000000   0.470899
   44  H  8  S   -0.280380  -0.233438   0.000000  -0.000000   0.208172
   45  H  9  S   -0.273893  -0.439192   0.000000  -0.000000   0.097853
   46  H  9  S   -0.111873  -0.121620   0.000000  -0.000000   0.108985
   47  H 10  S   -0.273893   0.439192   0.000000  -0.000000  -0.097853
   48  H 10  S   -0.111873   0.121620   0.000000  -0.000000  -0.108985

                     36         37         38         39         40
                    0.9958     1.1355     1.1617     1.1861     1.2003
                     AG         AG         BU         AG         BU  
    1  C  1  S   -0.069599   0.017252   0.000636   0.013772   0.021522
    2  C  1  S   -0.278282  -0.148133  -0.015201  -0.357268  -0.527041
    3  C  1  X   -0.488247   0.100390  -0.240062  -0.370642  -0.099765
    4  C  1  Y    0.173346   0.408376  -0.779418  -0.591606   0.116905
    5  C  1  Z    0.000000  -0.000000  -0.000000  -0.000000   0.000000
    6  C  1  S    1.908410   1.103872  -0.103534   1.521106   1.035682
    7  C  1  X    0.041432  -0.738216   0.830911   0.363904   0.180384
    8  C  1  Y    0.061228  -1.158376   2.187183   1.462444   0.385095
    9  C  1  Z    0.000000  -0.000000  -0.000000  -0.000000   0.000000
   10  C  2  S   -0.069599   0.017252  -0.000636   0.013772  -0.021522
   11  C  2  S   -0.278282  -0.148133   0.015201  -0.357268   0.527041
   12  C  2  X    0.488247  -0.100390  -0.240062   0.370642  -0.099765
   13  C  2  Y   -0.173346  -0.408376  -0.779418   0.591606   0.116905
   14  C  2  Z    0.000000  -0.000000  -0.000000  -0.000000   0.000000
   15  C  2  S    1.908410   1.103872   0.103534   1.521106  -1.035682
   16  C  2  X   -0.041432   0.738216   0.830911  -0.363904   0.180384
   17  C  2  Y   -0.061228   1.158376   2.187183  -1.462444   0.385095
   18  C  2  Z    0.000000  -0.000000  -0.000000  -0.000000   0.000000
   19  C  3  S    0.058943   0.019213   0.005041   0.008015  -0.028015
   20  C  3  S    0.103036  -0.340205  -0.110713  -0.284884   0.424981
   21  C  3  X   -0.470946   0.070800   0.166430   0.207113   0.037380
   22  C  3  Y   -0.005230  -0.759293   0.315911  -0.274551   0.636149
   23  C  3  Z    0.000000  -0.000000  -0.000000  -0.000000   0.000000
   24  C  3  S   -0.910577   0.885430   1.251320  -0.271420  -0.457773
   25  C  3  X   -0.489157  -0.678829  -1.142087  -1.132248  -0.721424
   26  C  3  Y    0.624202   2.637720  -1.795987   0.623073  -1.417376
   27  C  3  Z    0.000000  -0.000000  -0.000000  -0.000000   0.000000
   28  C  4  S    0.058943   0.019213  -0.005041   0.008015   0.028015
   29  C  4  S    0.103036  -0.340205   0.110713  -0.284884  -0.424981
   30  C  4  X    0.470946  -0.070800   0.166430  -0.207113   0.037380
   31  C  4  Y    0.005230   0.759293   0.315911   0.274551   0.636149
   32  C  4  Z    0.000000  -0.000000  -0.000000  -0.000000   0.000000
   33  C  4  S   -0.910577   0.885430  -1.251320  -0.271420   0.457773
   34  C  4  X    0.489157   0.678829  -1.142087   1.132248  -0.721424
   35  C  4  Y   -0.624202  -2.637720  -1.795987  -0.623073  -1.417376
   36  C  4  Z    0.000000  -0.000000  -0.000000  -0.000000   0.000000
   37  H  5  S   -0.404931  -0.043396   0.240714   0.424491   0.101104
   38  H  5  S   -0.156908   0.577883  -1.278914  -1.320844  -0.436056
   39  H  6  S   -0.404931  -0.043396  -0.240714   0.424491  -0.101104
   40  H  6  S   -0.156908   0.577883   1.278914  -1.320844   0.436056
   41  H  7  S   -0.299430   0.259132  -0.260235  -0.187740   0.324867
   42  H  7  S   -0.105083  -0.843216   1.418133   0.810964  -0.275385
   43  H  8  S   -0.299430   0.259132   0.260235  -0.187740  -0.324867
   44  H  8  S   -0.105083  -0.843216  -1.418133   0.810964   0.275385
   45  H  9  S    0.201127   0.162568   0.181953   0.311508  -0.535738
   46  H  9  S   -0.358287  -1.723236   0.549685  -0.740758   1.433161
   47  H 10  S    0.201127   0.162568  -0.181953   0.311508   0.535738
   48  H 10  S   -0.358287  -1.723236  -0.549685  -0.740758  -1.433161

                     41         42         43         44         45
                    1.2457     1.2660     1.2907     1.3503     1.4119
                     BU         AG         BU         AG         AG  
    1  C  1  S    0.021986   0.026089   0.016919   0.000311  -0.005435
    2  C  1  S   -1.005022  -0.787910  -0.040561  -1.053507  -0.264694
    3  C  1  X   -0.035935  -0.406096  -0.593229   0.430234  -0.140324
    4  C  1  Y    0.062886   0.273798   0.080227  -0.055943  -0.165922
    5  C  1  Z   -0.000000   0.000000  -0.000000   0.000000   0.000000
    6  C  1  S    1.965772   1.216351  -0.263265   2.417573   3.950973
    7  C  1  X   -0.259778   0.639341   1.062678  -1.125224  -0.498265
    8  C  1  Y   -0.062691  -0.299866  -0.605945  -0.210945   1.734037
    9  C  1  Z   -0.000000   0.000000  -0.000000   0.000000   0.000000
   10  C  2  S   -0.021986   0.026089  -0.016919   0.000311  -0.005435
   11  C  2  S    1.005022  -0.787910   0.040561  -1.053507  -0.264694
   12  C  2  X   -0.035935   0.406096  -0.593229  -0.430234   0.140324
   13  C  2  Y    0.062886  -0.273798   0.080227   0.055943   0.165922
   14  C  2  Z   -0.000000   0.000000  -0.000000   0.000000   0.000000
   15  C  2  S   -1.965772   1.216351   0.263265   2.417573   3.950973
   16  C  2  X   -0.259778  -0.639341   1.062678   1.125224   0.498265
   17  C  2  Y   -0.062691   0.299866  -0.605945   0.210945  -1.734037
   18  C  2  Z   -0.000000   0.000000  -0.000000   0.000000   0.000000
   19  C  3  S   -0.004298  -0.002562   0.032720  -0.003189   0.009956
   20  C  3  S   -0.820675   0.053079   0.495965   0.999951   0.554224
   21  C  3  X    0.356210  -0.154827  -0.571302   0.090634   0.517314
   22  C  3  Y   -0.189147   0.259387  -0.208707  -0.162015  -0.091411
   23  C  3  Z   -0.000000   0.000000  -0.000000   0.000000   0.000000
   24  C  3  S    1.736953  -0.229349  -1.980212  -2.234630  -3.144271
   25  C  3  X   -1.229780   0.357119   2.476713  -0.308997  -3.334014
   26  C  3  Y    0.148425  -0.738642   1.137388   0.332548   1.517966
   27  C  3  Z   -0.000000   0.000000  -0.000000   0.000000   0.000000
   28  C  4  S    0.004298  -0.002562  -0.032720  -0.003189   0.009956
   29  C  4  S    0.820675   0.053079  -0.495965   0.999951   0.554224
   30  C  4  X    0.356210   0.154827  -0.571302  -0.090634  -0.517314
   31  C  4  Y   -0.189147  -0.259387  -0.208707   0.162015   0.091411
   32  C  4  Z   -0.000000   0.000000  -0.000000   0.000000   0.000000
   33  C  4  S   -1.736953  -0.229349   1.980212  -2.234630  -3.144271
   34  C  4  X   -1.229780  -0.357119   2.476713   0.308997   3.334014
   35  C  4  Y    0.148425   0.738642   1.137388  -0.332548  -1.517966
   36  C  4  Z   -0.000000   0.000000  -0.000000   0.000000   0.000000
   37  H  5  S    0.326762   0.382776   0.407467   0.020054  -0.559651
   38  H  5  S   -0.425933  -0.772117  -0.789338   0.087092  -0.541624
   39  H  6  S   -0.326762   0.382776  -0.407467   0.020054  -0.559651
   40  H  6  S    0.425933  -0.772117   0.789338   0.087092  -0.541624
   41  H  7  S    0.284971   0.582308   0.290482  -0.262378   0.268735
   42  H  7  S   -0.614587  -1.056937  -0.713223  -0.342986   0.125755
   43  H  8  S   -0.284971   0.582308  -0.290482  -0.262378   0.268735
   44  H  8  S    0.614587  -1.056937   0.713223  -0.342986   0.125755
   45  H  9  S    0.185595  -0.180682   0.251468   0.181214  -0.351084
   46  H  9  S   -0.753409   0.774937  -0.401999   0.088158  -0.277100
   47  H 10  S   -0.185595  -0.180682  -0.251468   0.181214  -0.351084
   48  H 10  S    0.753409   0.774937   0.401999   0.088158  -0.277100

                     46         47         48
                    1.4282     1.6277     1.6481
                     BU         AG         BU  
    1  C  1  S   -0.017769  -0.002385   0.021240
    2  C  1  S   -0.626044   0.144011   0.707183
    3  C  1  X    0.160355  -0.187664  -0.100716
    4  C  1  Y   -0.070938  -0.006004   0.050208
    5  C  1  Z   -0.000000   0.000000   0.000000
    6  C  1  S    2.518761   1.388930  -3.245254
    7  C  1  X   -0.486401  -0.901894   1.906823
    8  C  1  Y    1.627127  -1.294509   1.367340
    9  C  1  Z   -0.000000   0.000000   0.000000
   10  C  2  S    0.017769  -0.002385  -0.021240
   11  C  2  S    0.626044   0.144011  -0.707183
   12  C  2  X    0.160355   0.187664  -0.100716
   13  C  2  Y   -0.070938   0.006004   0.050208
   14  C  2  Z   -0.000000   0.000000   0.000000
   15  C  2  S   -2.518761   1.388930   3.245254
   16  C  2  X   -0.486401   0.901894   1.906823
   17  C  2  Y    1.627127   1.294509   1.367340
   18  C  2  Z   -0.000000   0.000000   0.000000
   19  C  3  S    0.020737  -0.000891  -0.050358
   20  C  3  S    0.818961   0.366963  -1.183150
   21  C  3  X    0.152142  -0.166430  -0.260032
   22  C  3  Y   -0.069413  -0.259815   0.337899
   23  C  3  Z   -0.000000   0.000000   0.000000
   24  C  3  S   -2.277826   0.072102   6.335291
   25  C  3  X   -1.631724  -0.840912  -0.862692
   26  C  3  Y   -0.842424   3.229902  -3.183783
   27  C  3  Z   -0.000000   0.000000   0.000000
   28  C  4  S   -0.020737  -0.000891   0.050358
   29  C  4  S   -0.818961   0.366963   1.183150
   30  C  4  X    0.152142   0.166430  -0.260032
   31  C  4  Y   -0.069413   0.259815   0.337899
   32  C  4  Z   -0.000000   0.000000   0.000000
   33  C  4  S    2.277826   0.072102  -6.335291
   34  C  4  X   -1.631724   0.840912  -0.862692
   35  C  4  Y   -0.842424  -3.229902  -3.183783
   36  C  4  Z   -0.000000   0.000000   0.000000
   37  H  5  S   -0.585877   0.383845  -0.331457
   38  H  5  S   -0.298964   0.329032  -0.401453
   39  H  6  S    0.585877   0.383845   0.331457
   40  H  6  S    0.298964   0.329032   0.401453
   41  H  7  S    0.289909  -0.440128   0.621237
   42  H  7  S    0.310177  -0.475822   0.661582
   43  H  8  S   -0.289909  -0.440128  -0.621237
   44  H  8  S   -0.310177  -0.475822  -0.661582
   45  H  9  S    0.561209  -0.853977   0.184710
   46  H  9  S    0.352953  -1.202862   0.533141
   47  H 10  S   -0.561209  -0.853977  -0.184710
   48  H 10  S   -0.352953  -1.202862  -0.533141
 ...... END OF RHF CALCULATION ......
 STEP CPU TIME =     0.06 TOTAL CPU TIME =        0.2 (    0.0 MIN)
 TOTAL WALL CLOCK TIME=        0.6 SECONDS, CPU UTILIZATION IS  29.31%

     ----------------------------------------------------------------
     PROPERTY VALUES FOR THE RHF   SELF-CONSISTENT FIELD WAVEFUNCTION
     ----------------------------------------------------------------

          -----------------
          ENERGY COMPONENTS
          -----------------

         WAVEFUNCTION NORMALIZATION =       1.0000000000

                ONE ELECTRON ENERGY =    -413.6542973963
                TWO ELECTRON ENERGY =     154.5800670697
           NUCLEAR REPULSION ENERGY =     104.2096539485
                                      ------------------
                       TOTAL ENERGY =    -154.8645763781

 ELECTRON-ELECTRON POTENTIAL ENERGY =     154.5800670697
  NUCLEUS-ELECTRON POTENTIAL ENERGY =    -568.7104377040
   NUCLEUS-NUCLEUS POTENTIAL ENERGY =     104.2096539485
                                      ------------------
             TOTAL POTENTIAL ENERGY =    -309.9207166859
               TOTAL KINETIC ENERGY =     155.0561403078
                 VIRIAL RATIO (V/T) =       1.9987645512

  ...... PI ENERGY ANALYSIS ......

 ENERGY ANALYSIS:
            FOCK ENERGY=   -104.4941568689
          BARE H ENERGY=   -413.6542973963
     ELECTRONIC ENERGY =   -259.0742271326
         KINETIC ENERGY=    155.0561403078
          N-N REPULSION=    104.2096539485
           TOTAL ENERGY=   -154.8645731841
        SIGMA PART(1+2)=   -239.0936134829
               (K,V1,2)=    151.1129527517   -526.3317807294    136.1252144949
           PI PART(1+2)=    -19.9806136497
               (K,V1,2)=      3.9431875561    -42.3786569746     18.4548557688
  SIGMA SKELETON, ERROR=   -134.8839595344      0.0000000000
             MIXED PART= 0.00000E+00 0.00000E+00 0.00000E+00 0.00000E+00
 ...... END OF PI ENERGY ANALYSIS ......

          ---------------------------------------
          MULLIKEN AND LOWDIN POPULATION ANALYSES
          ---------------------------------------

     ATOMIC MULLIKEN POPULATION IN EACH MOLECULAR ORBITAL

                      1          2          3          4          5

                  2.000000   2.000000   2.000000   2.000000   2.000000

    1             0.005420   0.005852   0.994528   0.993394   0.337043
    2             0.005420   0.005852   0.994528   0.993394   0.337043
    3             0.994406   0.993960   0.004943   0.006104   0.595657
    4             0.994406   0.993960   0.004943   0.006104   0.595657
    5             0.000014   0.000009   0.000271   0.000233   0.012809
    6             0.000014   0.000009   0.000271   0.000233   0.012809
    7            -0.000010  -0.000008   0.000265   0.000268   0.018675
    8            -0.000010  -0.000008   0.000265   0.000268   0.018675
    9             0.000169   0.000188  -0.000006   0.000001   0.035816
   10             0.000169   0.000188  -0.000006   0.000001   0.035816

                      6          7          8          9         10

                  2.000000   2.000000   2.000000   2.000000   2.000000

    1             0.544305   0.416055   0.215697   0.457218   0.381424
    2             0.544305   0.416055   0.215697   0.457218   0.381424
    3             0.348837   0.337718   0.416663   0.261613   0.318637
    4             0.348837   0.337718   0.416663   0.261613   0.318637
    5             0.052451   0.126186   0.016363   0.222152   0.044870
    6             0.052451   0.126186   0.016363   0.222152   0.044870
    7             0.039673   0.087698   0.119356   0.010092   0.186882
    8             0.039673   0.087698   0.119356   0.010092   0.186882
    9             0.014735   0.032343   0.231921   0.048926   0.068186
   10             0.014735   0.032343   0.231921   0.048926   0.068186

                     11         12         13         14         15

                  2.000000   2.000000   2.000000   2.000000   2.000000

    1             0.380161   0.435203   0.187005   0.362109   0.659960
    2             0.380161   0.435203   0.187005   0.362109   0.659960
    3             0.369890   0.121259   0.390207   0.637891   0.340040
    4             0.369890   0.121259   0.390207   0.637891   0.340040
    5             0.126086   0.119086   0.112479   0.000000   0.000000
    6             0.126086   0.119086   0.112479   0.000000   0.000000
    7             0.016938   0.242633   0.113156   0.000000   0.000000
    8             0.016938   0.242633   0.113156   0.000000   0.000000
    9             0.106924   0.081819   0.197153   0.000000   0.000000
   10             0.106924   0.081819   0.197153   0.000000   0.000000

               ----- POPULATIONS IN EACH AO -----
                             MULLIKEN      LOWDIN
              1  C  1  S      1.99765     1.99030
              2  C  1  S      0.68885     0.56283
              3  C  1  X      0.76404     0.70115
              4  C  1  Y      0.72763     0.65624
              5  C  1  Z      0.51863     0.49137
              6  C  1  S      0.58508     0.43565
              7  C  1  X      0.24202     0.40749
              8  C  1  Y      0.34804     0.46245
              9  C  1  Z      0.50344     0.53514
             10  C  2  S      1.99765     1.99030
             11  C  2  S      0.68885     0.56283
             12  C  2  X      0.76404     0.70115
             13  C  2  Y      0.72763     0.65624
             14  C  2  Z      0.51863     0.49137
             15  C  2  S      0.58508     0.43565
             16  C  2  X      0.24202     0.40749
             17  C  2  Y      0.34804     0.46245
             18  C  2  Z      0.50344     0.53514
             19  C  3  S      1.99772     1.98956
             20  C  3  S      0.69872     0.55456
             21  C  3  X      0.76803     0.71195
             22  C  3  Y      0.72953     0.66419
             23  C  3  Z      0.51550     0.47699
             24  C  3  S      0.49188     0.40292
             25  C  3  X      0.16595     0.37265
             26  C  3  Y      0.30806     0.44183
             27  C  3  Z      0.46243     0.49650
             28  C  4  S      1.99772     1.98956
             29  C  4  S      0.69872     0.55456
             30  C  4  X      0.76803     0.71195
             31  C  4  Y      0.72953     0.66419
             32  C  4  Z      0.51550     0.47699
             33  C  4  S      0.49188     0.40292
             34  C  4  X      0.16595     0.37265
             35  C  4  Y      0.30806     0.44183
             36  C  4  Z      0.46243     0.49650
             37  H  5  S      0.54149     0.51387
             38  H  5  S      0.29152     0.36638
             39  H  6  S      0.54149     0.51387
             40  H  6  S      0.29152     0.36638
             41  H  7  S      0.54084     0.51368
             42  H  7  S      0.29478     0.37086
             43  H  8  S      0.54084     0.51368
             44  H  8  S      0.29478     0.37086
             45  H  9  S      0.54334     0.52060
             46  H  9  S      0.27483     0.36083
             47  H 10  S      0.54334     0.52060
             48  H 10  S      0.27483     0.36083

          ----- MULLIKEN ATOMIC OVERLAP POPULATIONS -----
          (OFF-DIAGONAL ELEMENTS NEED TO BE MULTIPLIED BY 2)

             1           2           3           4           5

    1    5.0753709
    2    0.0021930   5.0753709
    3    0.5935252  -0.0541441   4.9477486
    4   -0.0541441   0.5935252   0.3846360   4.9477486
    5    0.3907913  -0.0001457  -0.0348032   0.0024296   0.5027610
    6   -0.0001457   0.3907913   0.0024296  -0.0348032   0.0000016
    7    0.4009429   0.0002642  -0.0522579  -0.0014525  -0.0255939
    8    0.0002642   0.4009429  -0.0014525  -0.0522579  -0.0000032
    9   -0.0344777   0.0010533   0.3947644  -0.0426225  -0.0024844
   10    0.0010533  -0.0344777  -0.0426225   0.3947644   0.0000573

             6           7           8           9          10

    6    0.5027610
    7   -0.0000032   0.5086386
    8   -0.0255939   0.0000086   0.5086386
    9    0.0000573   0.0028454   0.0022272   0.4944735
   10   -0.0024844   0.0022272   0.0028454   0.0023367   0.4944735

          TOTAL MULLIKEN AND LOWDIN ATOMIC POPULATIONS
       ATOM         MULL.POP.    CHARGE          LOW.POP.     CHARGE
    1 C1            6.375373   -0.375373         6.242638   -0.242638
    2 C1            6.375373   -0.375373         6.242638   -0.242638
    3 C2            6.137824   -0.137824         6.111143   -0.111143
    4 C2            6.137824   -0.137824         6.111143   -0.111143
    5 H1            0.833010    0.166990         0.880254    0.119746
    6 H1            0.833010    0.166990         0.880254    0.119746
    7 H2            0.835619    0.164381         0.884534    0.115466
    8 H2            0.835619    0.164381         0.884534    0.115466
    9 H3            0.818173    0.181827         0.881431    0.118569
   10 H3            0.818173    0.181827         0.881431    0.118569

          -------------------------------
          BOND ORDER AND VALENCE ANALYSIS     BOND ORDER THRESHOLD=0.050
          -------------------------------

                   BOND                       BOND                       BOND
  ATOM PAIR DIST  ORDER      ATOM PAIR DIST  ORDER      ATOM PAIR DIST  ORDER
    1   2  3.684  0.086        1   3  1.328  1.872        1   5  1.073  0.962
    1   7  1.075  0.966        2   4  1.328  1.872        2   6  1.073  0.962
    2   8  1.075  0.966        3   4  1.464  1.057        3   9  1.077  0.955
    4  10  1.077  0.955

                       TOTAL       BONDED        FREE
      ATOM            VALENCE     VALENCE     VALENCE
    1 C1                3.853       3.853       0.000
    2 C1                3.853       3.853       0.000
    3 C2                3.811       3.811       0.000
    4 C2                3.811       3.811       0.000
    5 H1                0.943       0.943       0.000
    6 H1                0.943       0.943       0.000
    7 H2                0.943       0.943       0.000
    8 H2                0.943       0.943       0.000
    9 H3                0.936       0.936       0.000
   10 H3                0.936       0.936       0.000

          ---------------------
          ELECTROSTATIC MOMENTS
          ---------------------

 POINT   1           X           Y           Z (BOHR)    CHARGE
                -0.000000   -0.000000    0.000000       -0.00 (A.U.)
         DX          DY          DZ         /D/  (DEBYE)
    -0.000000    0.000000   -0.000000    0.000000
 ...... END OF PROPERTY EVALUATION ......
 STEP CPU TIME =     0.01 TOTAL CPU TIME =        0.2 (    0.0 MIN)
 TOTAL WALL CLOCK TIME=        0.6 SECONDS, CPU UTILIZATION IS  30.00%
      580000  WORDS OF DYNAMIC MEMORY USED
 EXECUTION OF GAMESS TERMINATED NORMALLY Mon Dec  5 11:44:37 2011
 DDI: 263224 bytes (0.3 MB / 0 MWords) used by master data server.

 ----------------------------------------
 CPU timing information for all processes
 ========================================
 0: 0.152 + 0.32 = 0.184
 ----------------------------------------
 ddikick.x: exited gracefully.
unset echo
----- accounting info -----
Files used on the master node idhi were:
-rw-r--r-- 1 koushik koushik     608 2011-12-05 11:44 /home/koushik/Desktop/gamess/b.F05
-rw-r--r-- 1 koushik koushik 2340156 2011-12-05 11:44 /home/koushik/Desktop/gamess/b.F08
-rw-r--r-- 1 koushik koushik 1210640 2011-12-05 11:44 /home/koushik/Desktop/gamess/b.F10
-rw-r--r-- 1 koushik koushik     608 2011-12-05 11:44 /home/koushik/Desktop/gamess/b.inp
-rw-r--r-- 1 koushik koushik   73082 2011-12-05 11:44 /home/koushik/Desktop/gamess/b.log
Mon Dec  5 11:44:40 IST 2011
0.0u 0.0s 0:03.95 2.5% 0+0k 360+24io 5pf+0w
