
          ******************************************************
          *         GAMESS VERSION =  1 OCT 2010 (R1)          *
          *             FROM IOWA STATE UNIVERSITY             *
          * M.W.SCHMIDT, K.K.BALDRIDGE, J.A.BOATZ, S.T.ELBERT, *
          *   M.S.GORDON, J.H.JENSEN, S.KOSEKI, N.MATSUNAGA,   *
          *          K.A.NGUYEN, S.J.SU, T.L.WINDUS,           *
          *       TOGETHER WITH M.DUPUIS, J.A.MONTGOMERY       *
          *         J.COMPUT.CHEM.  14, 1347-1363(1993)        *
          **************** 32 BIT LINUX VERSION ****************

  SINCE 1993, STUDENTS AND POSTDOCS WORKING AT IOWA STATE UNIVERSITY
  AND ALSO IN THEIR VARIOUS JOBS AFTER LEAVING ISU HAVE MADE IMPORTANT
  CONTRIBUTIONS TO THE CODE:
     IVANA ADAMOVIC, CHRISTINE AIKENS, YURI ALEXEEV, POOJA ARORA,
     ANDREY ASADCHEV, ROB BELL, PRADIPTA BANDYOPADHYAY, JONATHAN BENTZ,
     BRETT BODE, GALINA CHABAN, WEI CHEN, CHEOL HO CHOI, PAUL DAY, TIM DUDLEY,
     DMITRI FEDOROV, GRAHAM FLETCHER, MARK FREITAG, KURT GLAESEMANN, DAN KEMP,
     GRANT MERRILL, NORIYUKI MINEZAWA, JONATHAN MULLIN, TAKESHI NAGATA,
     SEAN NEDD, HEATHER NETZLOFF, BOSILJKA NJEGIC, RYAN OLSON, MIKE PAK,
     JIM SHOEMAKER, LYUDMILA SLIPCHENKO, SAROM SOK, JIE SONG,
     TETSUYA TAKETSUGU, SIMON WEBB, SOOHAENG YOO, FEDERICO ZAHARIEV

  ADDITIONAL CODE HAS BEEN PROVIDED BY COLLABORATORS IN OTHER GROUPS:
     IOWA STATE UNIVERSITY:
          JOE IVANIC, LAIMUTIS BYTAUTAS, KLAUS RUEDENBERG
     UNIVERSITY OF TOKYO: KIMIHIKO HIRAO, TAKAHITO NAKAJIMA,
          TAKAO TSUNEDA, MUNEAKI KAMIYA, SUSUMU YANAGISAWA,
          KIYOSHI YAGI, MAHITO CHIBA, SEIKEN TOKURA, NAOAKI KAWAKAMI
     UNIVERSITY OF AARHUS: FRANK JENSEN
     UNIVERSITY OF IOWA: VISVALDAS KAIRYS, HUI LI
     NATIONAL INST. OF STANDARDS AND TECHNOLOGY: WALT STEVENS, DAVID GARMER
     UNIVERSITY OF PISA: BENEDETTA MENNUCCI, JACOPO TOMASI
     UNIVERSITY OF MEMPHIS: HENRY KURTZ, PRAKASHAN KORAMBATH
     UNIVERSITY OF ALBERTA: TOBY ZENG, MARIUSZ KLOBUKOWSKI
     UNIVERSITY OF NEW ENGLAND: MARK SPACKMAN
     MIE UNIVERSITY: HIROAKI UMEDA
     MICHIGAN STATE UNIVERSITY:
          KAROL KOWALSKI, MARTA WLOCH, JEFFREY GOUR, JESSE LUTZ, PIOTR PIECUCH
     UNIVERSITY OF SILESIA: MONIKA MUSIAL, STANISLAW KUCHARSKI
     FACULTES UNIVERSITAIRES NOTRE-DAME DE LA PAIX:
          OLIVIER QUINET, BENOIT CHAMPAGNE
     UNIVERSITY OF CALIFORNIA - SANTA BARBARA: BERNARD KIRTMAN
     INSTITUTE FOR MOLECULAR SCIENCE:
          KAZUYA ISHIMURA, MICHIO KATOUDA, AND SHIGERU NAGASE
     UNIVERSITY OF NOTRE DAME: DAN CHIPMAN
     KYUSHU UNIVERSITY:
          HARUYUKI NAKANO,
          FENG LONG GU, JACEK KORCHOWIEC, MARCIN MAKOWSKI, AND YURIKO AOKI,
          HIROTOSHI MORI AND EISAKU MIYOSHI
     PENNSYLVANIA STATE UNIVERSITY:
          TZVETELIN IORDANOV, CHET SWALINA, JONATHAN SKONE,
          SHARON HAMMES-SCHIFFER
     WASEDA UNIVERSITY:
          MASATO KOBAYASHI, TOMOKO AKAMA, HIROMI NAKAI
     UNIVERSITY OF NEBRASKA:
          PEIFENG SU, DEJUN SI, YALI WANG, HUI LI
     UNIVERSITY OF ZURICH:
          ROBERTO PEVERATI, KIM BALDRIDGE
     N. COPERNICUS UNIVERSITY AND JACKSON STATE UNIVERSITY:
          MARIA BARYSZ

 EXECUTION OF GAMESS BEGUN Mon Nov 14 12:18:15 2011

            ECHO OF THE FIRST FEW INPUT CARDS -
 INPUT CARD> $CONTRL RUNTYP=ENERGY COORD=UNIQUE UNITS=ANGS $END                             
 INPUT CARD> $BASIS  GBASIS=N21 NGAUSS=3 NDFUNC=1 $END                                      
 INPUT CARD> $DATA                                                                          
 INPUT CARD>3-21g(d) / Iodomethane single point energy                                      
 INPUT CARD>C1                                                                              
 INPUT CARD>I          53.0   0.3061173620   0.0001353896   0.0000861557                    
 INPUT CARD>C           6.0  -1.8735193700  -0.0000690343  -0.0000131229                    
 INPUT CARD>H           1.0  -2.2005433799   0.2316628203   0.9991454491                    
 INPUT CARD>H           1.0  -2.2003767307  -0.9812741146  -0.2989663895                    
 INPUT CARD>H           1.0  -2.2005235734   0.7493085882  -0.7003539349                    
 INPUT CARD> $END                                                                           
    1000000 WORDS OF MEMORY AVAILABLE

     BASIS OPTIONS
     -------------
     GBASIS=N21          IGAUSS=       3      POLAR=COMMON  
     NDFUNC=       1     NFFUNC=       0     DIFFSP=       F
     NPFUNC=       0      DIFFS=       F     BASNAM=        


     RUN TITLE
     ---------
 3-21g(d) / Iodomethane single point energy                                      

 THE POINT GROUP OF THE MOLECULE IS C1      
 THE ORDER OF THE PRINCIPAL AXIS IS     0

 ATOM      ATOMIC                      COORDINATES (BOHR)
           CHARGE         X                   Y                   Z
 I          53.0     0.5784779343        0.0002558492        0.0001628107
 C           6.0    -3.5404382420       -0.0001304559       -0.0000247987
 H           1.0    -4.1584240121        0.4377792519        1.8881111207
 H           1.0    -4.1581090908       -1.8543391954       -0.5649645557
 H           1.0    -4.1583865832        1.4159879119       -1.3234770314

          INTERNUCLEAR DISTANCES (ANGS.)
          ------------------------------

                1 I          2 C          3 H          4 H          5 H     

   1 I       0.0000000    2.1796367 *  2.7083339 *  2.7083408 *  2.7083437 *
   2 C       2.1796367 *  0.0000000    1.0765511 *  1.0765557 *  1.0765574 *
   3 H       2.7083339 *  1.0765511 *  0.0000000    1.7766008 *  1.7765853 *
   4 H       2.7083408 *  1.0765557 *  1.7766008 *  0.0000000    1.7765215 *
   5 H       2.7083437 *  1.0765574 *  1.7765853 *  1.7765215 *  0.0000000  

  * ... LESS THAN  3.000


     ATOMIC BASIS SET
     ----------------
 THE CONTRACTED PRIMITIVE FUNCTIONS HAVE BEEN UNNORMALIZED
 THE CONTRACTED BASIS FUNCTIONS ARE NOW NORMALIZED TO UNITY

  SHELL TYPE  PRIMITIVE        EXPONENT          CONTRACTION COEFFICIENT(S)

 I         

      1   S       1         14351.1860000    0.061002801211
      1   S       2          2173.0741000    0.366639807281
      1   S       3           477.8720500    0.691130613725

      2   L       4           648.1887000   -0.112850698620    0.154114493237
      2   L       5           140.3064000    0.083228338982    0.619461772816
      2   L       6            45.6988000    0.969751588138    0.383758283159

      3   L       7            56.6946900   -0.273696515460   -0.152321688285
      3   L       8            27.4887500    0.046499682627    0.543768558178
      3   L       9             8.2090960    1.091576061658    0.656167849533

      4   D      10           128.0902600    0.115863604354
      4   D      11            35.9823780    0.482049418114
      4   D      12            11.5511160    0.589444822149

      5   L      13             8.1916790   -0.450827701928    0.011869880145
      5   L      14             3.2445960    0.463209401981    0.526524606432
      5   L      15             1.3004890    0.838636003587    0.526607606433

      6   D      16             6.1461523    0.268181706033
      6   D      17             2.2209370    0.580061413050
      6   D      18             0.8099120    0.326226307339

      7   L      19             1.4513800   -0.665851440678    0.027541310868
      7   L      20             0.3281033    1.328583881634    0.985136831056

      8   L      21             0.1150759    1.000000000000    1.000000000000

      9   D      22             0.2660000    1.000000000000

 C         

     10   S      23           172.2560000    0.061766907377
     10   S      24            25.9109000    0.358794042852
     10   S      25             5.5333500    0.700713083689

     11   L      26             3.6649800   -0.395895162119    0.236459946619
     11   L      27             0.7705450    1.215834355681    0.860618805716

     12   L      28             0.1958570    1.000000000000    1.000000000000

 H         

     13   S      29             5.4471780    0.156284978695
     13   S      30             0.8245472    0.904690876670

     14   S      31             0.1831916    1.000000000000

 H         

     15   S      32             5.4471780    0.156284978695
     15   S      33             0.8245472    0.904690876670

     16   S      34             0.1831916    1.000000000000

 H         

     17   S      35             5.4471780    0.156284978695
     17   S      36             0.8245472    0.904690876670

     18   S      37             0.1831916    1.000000000000

 TOTAL NUMBER OF BASIS SET SHELLS             =   18
 NUMBER OF CARTESIAN GAUSSIAN BASIS FUNCTIONS =   54
 NUMBER OF ELECTRONS                          =   62
 CHARGE OF MOLECULE                           =    0
 SPIN MULTIPLICITY                            =    1
 NUMBER OF OCCUPIED ORBITALS (ALPHA)          =   31
 NUMBER OF OCCUPIED ORBITALS (BETA )          =   31
 TOTAL NUMBER OF ATOMS                        =    5
 THE NUCLEAR REPULSION ENERGY IS      118.0129205090

     $CONTRL OPTIONS
     ---------------
 SCFTYP=RHF          RUNTYP=ENERGY       EXETYP=RUN     
 MPLEVL=       0     CITYP =NONE         CCTYP =NONE         VBTYP =NONE    
 DFTTYP=NONE         TDDFT =NONE    
 MULT  =       1     ICHARG=       0     NZVAR =       0     COORD =UNIQUE  
 PP    =NONE         RELWFN=NONE         LOCAL =NONE         NUMGRD=       F
 ISPHER=      -1     NOSYM =       0     MAXIT =      30     UNITS =ANGS    
 PLTORB=       F     MOLPLT=       F     AIMPAC=       F     FRIEND=        
 NPRINT=       7     IREST =       0     GEOM  =INPUT   
 NORMF =       0     NORMP =       0     ITOL  =      20     ICUT  =       9
 INTTYP=BEST         GRDTYP=BEST         QMTTOL= 1.0E-06

     $SYSTEM OPTIONS
     ---------------
  REPLICATED MEMORY=     1000000 WORDS (ON EVERY NODE).
 DISTRIBUTED MEMDDI=           0 MILLION WORDS IN AGGREGATE,
 MEMDDI DISTRIBUTED OVER   1 PROCESSORS IS           0 WORDS/PROCESSOR.
 TOTAL MEMORY REQUESTED ON EACH PROCESSOR=     1000000 WORDS.
 TIMLIM=      525600.00 MINUTES, OR     365.0 DAYS.
 PARALL= F  BALTYP=  DLB     KDIAG=    0  COREFL= F
 MXSEQ2=     300 MXSEQ3=     150

          ----------------
          PROPERTIES INPUT
          ----------------

     MOMENTS            FIELD           POTENTIAL          DENSITY
 IEMOM =       1   IEFLD =       0   IEPOT =       0   IEDEN =       0
 WHERE =COMASS     WHERE =NUCLEI     WHERE =NUCLEI     WHERE =NUCLEI  
 OUTPUT=BOTH       OUTPUT=BOTH       OUTPUT=BOTH       OUTPUT=BOTH    
 IEMINT=       0   IEFINT=       0                     IEDINT=       0
                                                       MORB  =       0
          EXTRAPOLATION IN EFFECT
          SOSCF IN EFFECT
 ORBITAL PRINTING OPTION: NPREO=     1    54     2     1

     -------------------------------
     INTEGRAL TRANSFORMATION OPTIONS
     -------------------------------
     NWORD  =            0
     CUTOFF = 1.0E-09     MPTRAN =       0
     DIRTRF =       F     AOINTS =DUP     

          ----------------------
          INTEGRAL INPUT OPTIONS
          ----------------------
 NOPK  =       1 NORDER=       0 SCHWRZ=       F

     ------------------------------------------
     THE POINT GROUP IS C1 , NAXIS= 0, ORDER= 1
     ------------------------------------------

     DIMENSIONS OF THE SYMMETRY SUBSPACES ARE
 A   =   54

 ..... DONE SETTING UP THE RUN .....
 STEP CPU TIME =     0.01 TOTAL CPU TIME =        0.0 (    0.0 MIN)
 TOTAL WALL CLOCK TIME=        0.0 SECONDS, CPU UTILIZATION IS 100.00%

          ********************
          1 ELECTRON INTEGRALS
          ********************
 ...... END OF ONE-ELECTRON INTEGRALS ......
 STEP CPU TIME =     0.00 TOTAL CPU TIME =        0.0 (    0.0 MIN)
 TOTAL WALL CLOCK TIME=        0.0 SECONDS, CPU UTILIZATION IS 100.00%

          -------------
          GUESS OPTIONS
          -------------
          GUESS =HUCKEL            NORB  =       0          NORDER=       0
          MIX   =       F          PRTMO =       F          PUNMO =       F
          TOLZ  = 1.0E-08          TOLE  = 1.0E-05
          SYMDEN=       F          PURIFY=       F

 INITIAL GUESS ORBITALS GENERATED BY HUCKEL   ROUTINE.
 HUCKEL GUESS REQUIRES     30797 WORDS.

 SYMMETRIES FOR INITIAL GUESS ORBITALS FOLLOW.   BOTH SET(S).
    31 ORBITALS ARE OCCUPIED (   24 CORE ORBITALS).
    25=A       26=A       27=A       28=A       29=A       30=A       31=A   
    32=A       33=A       34=A       35=A       36=A       37=A       38=A   
    39=A       40=A       41=A   
 ...... END OF INITIAL ORBITAL SELECTION ......
 STEP CPU TIME =     0.01 TOTAL CPU TIME =        0.0 (    0.0 MIN)
 TOTAL WALL CLOCK TIME=        0.0 SECONDS, CPU UTILIZATION IS 100.00%

                    ----------------------
                    AO INTEGRAL TECHNOLOGY
                    ----------------------
     S,P,L SHELL ROTATED AXIS INTEGRALS, REPROGRAMMED BY
        KAZUYA ISHIMURA (IMS) AND JOSE SIERRA (SYNSTAR).
     S,P,D,L SHELL ROTATED AXIS INTEGRALS PROGRAMMED BY
        KAZUYA ISHIMURA (INSTITUTE FOR MOLECULAR SCIENCE).
     S,P,D,F,G SHELL TO TOTAL QUARTET ANGULAR MOMENTUM SUM 5,
        ERIC PROGRAM BY GRAHAM FLETCHER (ELORET AND NASA ADVANCED
        SUPERCOMPUTING DIVISION, AMES RESEARCH CENTER).
     S,P,D,F,G,L SHELL GENERAL RYS QUADRATURE PROGRAMMED BY
        MICHEL DUPUIS (PACIFIC NORTHWEST NATIONAL LABORATORY).

          --------------------
          2 ELECTRON INTEGRALS
          --------------------

 THE -PK- OPTION IS OFF, THE INTEGRALS ARE NOT IN SUPERMATRIX FORM.
 STORING   15000 INTEGRALS/RECORD ON DISK, USING 12 BYTES/INTEGRAL.
 TWO ELECTRON INTEGRAL EVALUATION REQUIRES   90567 WORDS OF MEMORY.
 II,JST,KST,LST =  1  1  1  1 NREC =         1 INTLOC =    1
 II,JST,KST,LST =  2  1  1  1 NREC =         1 INTLOC =    2
 II,JST,KST,LST =  3  1  1  1 NREC =         1 INTLOC =   34
 II,JST,KST,LST =  4  1  1  1 NREC =         1 INTLOC =  214
 II,JST,KST,LST =  5  1  1  1 NREC =         1 INTLOC = 1189
 II,JST,KST,LST =  6  1  1  1 NREC =         1 INTLOC = 2864
 II,JST,KST,LST =  7  1  1  1 NREC =         1 INTLOC = 7967
 II,JST,KST,LST =  8  1  1  1 NREC =         1 INTLOC =14065
 II,JST,KST,LST =  9  1  1  1 NREC =         2 INTLOC = 8257
 II,JST,KST,LST = 10  1  1  1 NREC =         3 INTLOC =13987
 II,JST,KST,LST = 11  1  1  1 NREC =         4 INTLOC = 6236
 II,JST,KST,LST = 12  1  1  1 NREC =         8 INTLOC =14626
 II,JST,KST,LST = 13  1  1  1 NREC =        17 INTLOC = 3260
 II,JST,KST,LST = 14  1  1  1 NREC =        19 INTLOC = 8193
 II,JST,KST,LST = 15  1  1  1 NREC =        23 INTLOC = 4489
 II,JST,KST,LST = 16  1  1  1 NREC =        25 INTLOC =14536
 II,JST,KST,LST = 17  1  1  1 NREC =        30 INTLOC = 2654
 II,JST,KST,LST = 18  1  1  1 NREC =        33 INTLOC = 3706
 TOTAL NUMBER OF NONZERO TWO-ELECTRON INTEGRALS =              554531
         37 INTEGRAL RECORDS WERE STORED ON DISK FILE  8.
  ...... END OF TWO-ELECTRON INTEGRALS .....
 STEP CPU TIME =     0.14 TOTAL CPU TIME =        0.2 (    0.0 MIN)
 TOTAL WALL CLOCK TIME=        0.2 SECONDS, CPU UTILIZATION IS 100.00%

          --------------------------
                 RHF SCF CALCULATION
          --------------------------

     NUCLEAR ENERGY =       118.0129205090
     MAXIT =   30     NPUNCH=    2
     EXTRAP=T  DAMP=F  SHIFT=F  RSTRCT=F  DIIS=F  DEM=F  SOSCF=T
     DENSITY MATRIX CONV=  1.00E-05
     SOSCF WILL OPTIMIZE     713 ORBITAL ROTATIONS, SOGTOL=   0.250
     MEMORY REQUIRED FOR RHF ITERS=     54020 WORDS.

 ITER EX DEM     TOTAL ENERGY        E CHANGE  DENSITY CHANGE     ORB. GRAD
   1  0  0    -6926.5118001558 -6926.5118001558   0.445903581   0.000000000
          ---------------START SECOND ORDER SCF---------------
   2  1  0    -6927.2933848817    -0.7815847259   0.086940497   0.078884621
   3  2  0    -6927.3020592914    -0.0086744097   0.055865472   0.010383896
   4  3  0    -6927.3036973435    -0.0016380520   0.008359211   0.011634419
   5  4  0    -6927.3037451053    -0.0000477618   0.002374923   0.000751748
   6  5  0    -6927.3037507211    -0.0000056158   0.000579809   0.001053025
   7  6  0    -6927.3037512413    -0.0000005202   0.000198555   0.000129487
   8  7  0    -6927.3037512620    -0.0000000207   0.000068731   0.000011741
   9  8  0    -6927.3037512632    -0.0000000012   0.000009614   0.000007181
  10  9  0    -6927.3037512632    -0.0000000001   0.000001369   0.000000783

          -----------------
          DENSITY CONVERGED
          -----------------
     TIME TO FORM FOCK OPERATORS=       0.1 SECONDS (       0.0 SEC/ITER)
     TIME TO SOLVE SCF EQUATIONS=       0.0 SECONDS (       0.0 SEC/ITER)

 FINAL RHF ENERGY IS    -6927.3037512632 AFTER  10 ITERATIONS

          ------------
          EIGENVECTORS
          ------------

                      1          2          3          4          5
                -1170.4321  -180.1249  -168.3661  -168.3652  -168.3652
                     A          A          A          A          A   
    1  I  1  S    0.972422  -0.344050  -0.000086  -0.000000   0.000000
    2  I  1  S    0.113575   1.035079   0.000250   0.000000   0.000000
    3  I  1  X   -0.000004  -0.000227   0.975460  -0.000070  -0.000074
    4  I  1  Y   -0.000000  -0.000000   0.000091   0.281224   0.934065
    5  I  1  Z   -0.000000  -0.000000   0.000046   0.934065  -0.281224
    6  I  1  S    0.242278   0.147974  -0.000043  -0.000000   0.000000
    7  I  1  X    0.000011  -0.000038   0.062527  -0.000004  -0.000005
    8  I  1  Y    0.000000  -0.000000   0.000006   0.018004   0.059799
    9  I  1  Z    0.000000  -0.000000   0.000003   0.059799  -0.018004
   10  I  1 XX   -0.128144  -0.047060  -0.000016   0.000000   0.000000
   11  I  1 YY   -0.128139  -0.047084  -0.000002   0.000001   0.000000
   12  I  1 ZZ   -0.128139  -0.047084  -0.000002  -0.000001  -0.000000
   13  I  1 XY   -0.000000   0.000000  -0.000000  -0.000002  -0.000007
   14  I  1 XZ   -0.000000   0.000000  -0.000000  -0.000007   0.000002
   15  I  1 YZ    0.000000  -0.000000   0.000000  -0.000000   0.000001
   16  I  1  S    0.054037  -0.081209   0.001454   0.000000   0.000000
   17  I  1  X   -0.000027   0.000037  -0.018761   0.000001   0.000001
   18  I  1  Y   -0.000000   0.000000  -0.000002  -0.005361  -0.017807
   19  I  1  Z   -0.000000   0.000000  -0.000001  -0.017807   0.005361
   20  I  1 XX   -0.026534   0.037281  -0.000981  -0.000000   0.000000
   21  I  1 YY   -0.026551   0.037318  -0.000972  -0.000003  -0.000001
   22  I  1 ZZ   -0.026551   0.037318  -0.000972   0.000003   0.000001
   23  I  1 XY    0.000000  -0.000000  -0.000000  -0.000004  -0.000015
   24  I  1 XZ    0.000000  -0.000000   0.000000  -0.000015   0.000004
   25  I  1 YZ   -0.000000   0.000000  -0.000000   0.000001  -0.000003
   26  I  1  S    0.019420  -0.026239   0.000529   0.000000   0.000000
   27  I  1  X    0.000066  -0.000063   0.008749  -0.000001  -0.000001
   28  I  1  Y    0.000000  -0.000000   0.000001   0.002385   0.007922
   29  I  1  Z    0.000000  -0.000000   0.000000   0.007922  -0.002385
   30  I  1  S    0.006723  -0.008027   0.002053   0.000000  -0.000000
   31  I  1  X   -0.000009  -0.000081  -0.004090   0.000000   0.000000
   32  I  1  Y   -0.000000  -0.000000  -0.000000  -0.001104  -0.003666
   33  I  1  Z    0.000000  -0.000000  -0.000000  -0.003666   0.001104
   34  I  1 XX   -0.005577   0.007112  -0.001031  -0.000000  -0.000000
   35  I  1 YY   -0.005489   0.006936  -0.000889   0.000010   0.000004
   36  I  1 ZZ   -0.005489   0.006936  -0.000889  -0.000010  -0.000004
   37  I  1 XY   -0.000000   0.000000  -0.000000   0.000019   0.000062
   38  I  1 XZ   -0.000000   0.000000  -0.000000   0.000062  -0.000019
   39  I  1 YZ    0.000000  -0.000000   0.000000  -0.000005   0.000012
   40  C  2  S   -0.000013   0.000018  -0.000130  -0.000000   0.000000
   41  C  2  S   -0.000054   0.000086  -0.000959  -0.000000   0.000000
   42  C  2  X    0.000089  -0.000097  -0.000048   0.000000  -0.000000
   43  C  2  Y    0.000000  -0.000000  -0.000000   0.000005   0.000018
   44  C  2  Z    0.000000  -0.000000   0.000000   0.000018  -0.000005
   45  C  2  S    0.000408  -0.000562   0.002155   0.000000  -0.000000
   46  C  2  X    0.000009  -0.000094   0.000147  -0.000000   0.000000
   47  C  2  Y   -0.000000  -0.000000   0.000000   0.000000   0.000001
   48  C  2  Z   -0.000000   0.000000  -0.000000   0.000001  -0.000000
   49  H  3  S   -0.000031   0.000048  -0.000085  -0.000104   0.000007
   50  H  3  S   -0.000176   0.000186  -0.000940   0.000442  -0.000029
   51  H  4  S   -0.000031   0.000048  -0.000085   0.000058   0.000087
   52  H  4  S   -0.000176   0.000186  -0.000940  -0.000246  -0.000368
   53  H  5  S   -0.000031   0.000048  -0.000085   0.000046  -0.000094
   54  H  5  S   -0.000176   0.000186  -0.000940  -0.000196   0.000397

                      6          7          8          9         10
                  -37.8475   -32.7436   -32.7399   -32.7399   -24.1992
                     A          A          A          A          A   
    1  I  1  S    0.151816   0.000162   0.000000  -0.000000  -0.000026
    2  I  1  S   -0.547397  -0.000586  -0.000000   0.000000   0.000449
    3  I  1  X    0.000467  -0.469443   0.000037   0.000032  -0.000243
    4  I  1  Y    0.000000  -0.000044  -0.181690  -0.432890  -0.000000
    5  I  1  Z    0.000000  -0.000022  -0.432890   0.181690  -0.000000
    6  I  1  S    1.099285   0.001151   0.000000  -0.000000   0.000630
    7  I  1  X   -0.001034   1.065337  -0.000085  -0.000073   0.000560
    8  I  1  Y   -0.000000   0.000100   0.412352   0.982460   0.000000
    9  I  1  Z   -0.000000   0.000050   0.982460  -0.412352   0.000000
   10  I  1 XX   -0.006148  -0.000510   0.000000   0.000000   0.975309
   11  I  1 YY   -0.006500   0.000294  -0.000001  -0.000000  -0.487779
   12  I  1 ZZ   -0.006500   0.000294   0.000001   0.000000  -0.487779
   13  I  1 XY    0.000000  -0.000000  -0.000183  -0.000435   0.000159
   14  I  1 XZ    0.000000  -0.000000  -0.000435   0.000183   0.000080
   15  I  1 YZ    0.000000  -0.000000   0.000000  -0.000001  -0.000000
   16  I  1  S    0.101972  -0.001505  -0.000000  -0.000000   0.002826
   17  I  1  X   -0.000102   0.036989  -0.000003  -0.000003   0.000182
   18  I  1  Y   -0.000000   0.000003   0.014198   0.033828   0.000000
   19  I  1  Z   -0.000000   0.000002   0.033828  -0.014198   0.000000
   20  I  1 XX   -0.025712   0.000864   0.000000   0.000000   0.069934
   21  I  1 YY   -0.025775   0.000966   0.000002   0.000001  -0.034658
   22  I  1 ZZ   -0.025775   0.000966  -0.000002  -0.000001  -0.034658
   23  I  1 XY    0.000000  -0.000000  -0.000025  -0.000061   0.000011
   24  I  1 XZ    0.000000  -0.000000  -0.000061   0.000025   0.000006
   25  I  1 YZ    0.000000   0.000000  -0.000001   0.000003  -0.000000
   26  I  1  S    0.008246  -0.000549  -0.000000  -0.000000   0.005884
   27  I  1  X    0.000025  -0.008032   0.000001   0.000001  -0.002309
   28  I  1  Y    0.000000  -0.000001  -0.002941  -0.007007  -0.000000
   29  I  1  Z    0.000000  -0.000000  -0.007007   0.002941  -0.000000
   30  I  1  S   -0.001714  -0.001622  -0.000000   0.000000  -0.019021
   31  I  1  X   -0.000130   0.003378  -0.000000  -0.000000   0.013244
   32  I  1  Y   -0.000000   0.000000   0.001234   0.002940   0.000001
   33  I  1  Z   -0.000000   0.000000   0.002940  -0.001234   0.000001
   34  I  1 XX    0.000509   0.000905   0.000000   0.000000  -0.020161
   35  I  1 YY    0.000374   0.000714  -0.000009  -0.000003   0.013067
   36  I  1 ZZ    0.000374   0.000714   0.000009   0.000003   0.013067
   37  I  1 XY    0.000000   0.000000  -0.000013  -0.000032  -0.000004
   38  I  1 XZ    0.000000   0.000000  -0.000032   0.000013  -0.000002
   39  I  1 YZ   -0.000000  -0.000000   0.000003  -0.000010   0.000000
   40  C  2  S    0.000025   0.000114   0.000000  -0.000000  -0.000821
   41  C  2  S    0.000073   0.000759   0.000000  -0.000000  -0.004154
   42  C  2  X   -0.000070  -0.000003   0.000000   0.000000   0.000488
   43  C  2  Y   -0.000000  -0.000000  -0.000007  -0.000016   0.000000
   44  C  2  Z   -0.000000  -0.000000  -0.000016   0.000007   0.000000
   45  C  2  S   -0.000329  -0.001785  -0.000000   0.000000   0.016551
   46  C  2  X   -0.000094  -0.000144   0.000000  -0.000000   0.010553
   47  C  2  Y   -0.000000  -0.000000   0.000010   0.000025   0.000001
   48  C  2  Z    0.000000   0.000000   0.000025  -0.000010   0.000000
   49  H  3  S    0.000038   0.000080   0.000073  -0.000013  -0.001570
   50  H  3  S    0.000059   0.000755  -0.000362   0.000062   0.001065
   51  H  4  S    0.000038   0.000080  -0.000048  -0.000057  -0.001570
   52  H  4  S    0.000059   0.000755   0.000235   0.000283   0.001065
   53  H  5  S    0.000038   0.000080  -0.000026   0.000070  -0.001570
   54  H  5  S    0.000060   0.000755   0.000127  -0.000345   0.001065

                     11         12         13         14         15
                  -24.1973   -24.1973   -24.1935   -24.1935   -11.2210
                     A          A          A          A          A   
    1  I  1  S   -0.000000   0.000000  -0.000000  -0.000000  -0.000003
    2  I  1  S   -0.000000   0.000000   0.000000  -0.000000  -0.000113
    3  I  1  X    0.000000   0.000000  -0.000000  -0.000000   0.000109
    4  I  1  Y   -0.000071  -0.000208   0.000001   0.000000   0.000000
    5  I  1  Z   -0.000208   0.000071  -0.000000   0.000001   0.000000
    6  I  1  S   -0.000000   0.000000   0.000000  -0.000000  -0.000296
    7  I  1  X   -0.000000  -0.000000   0.000000   0.000000  -0.000414
    8  I  1  Y    0.000168   0.000490  -0.000006  -0.000001  -0.000000
    9  I  1  Z    0.000490  -0.000168   0.000001  -0.000006  -0.000000
   10  I  1 XX   -0.000127  -0.000124  -0.000000  -0.000001   0.000151
   11  I  1 YY   -0.001878  -0.000560   0.395922   0.746669  -0.000045
   12  I  1 ZZ    0.002005   0.000685  -0.395922  -0.746668  -0.000045
   13  I  1 XY    0.316942   0.922861   0.002258   0.000406   0.000000
   14  I  1 XZ    0.922861  -0.316942  -0.000525   0.002425   0.000000
   15  I  1 YZ    0.000922  -0.002214   0.862179  -0.457170  -0.000000
   16  I  1  S    0.000000  -0.000000  -0.000000   0.000000  -0.000161
   17  I  1  X   -0.000000  -0.000000  -0.000000  -0.000000   0.001106
   18  I  1  Y    0.000028   0.000081   0.000020   0.000004   0.000000
   19  I  1  Z    0.000081  -0.000028  -0.000004   0.000020   0.000000
   20  I  1 XX   -0.000009  -0.000009  -0.000000  -0.000000  -0.001049
   21  I  1 YY   -0.000149  -0.000046   0.027648   0.052141  -0.000425
   22  I  1 ZZ    0.000158   0.000054  -0.027648  -0.052141  -0.000425
   23  I  1 XY    0.022254   0.064799   0.000136   0.000024  -0.000000
   24  I  1 XZ    0.064799  -0.022254  -0.000032   0.000147  -0.000000
   25  I  1 YZ    0.000072  -0.000175   0.060207  -0.031925   0.000000
   26  I  1  S    0.000000  -0.000000  -0.000000   0.000000  -0.001782
   27  I  1  X    0.000000   0.000000   0.000000   0.000000  -0.002725
   28  I  1  Y   -0.000190  -0.000554  -0.000049  -0.000010  -0.000000
   29  I  1  Z   -0.000554   0.000190   0.000010  -0.000049  -0.000000
   30  I  1  S    0.000000  -0.000000  -0.000000   0.000000   0.010392
   31  I  1  X   -0.000000  -0.000000   0.000000  -0.000000  -0.008967
   32  I  1  Y    0.000512   0.001490  -0.000036  -0.000007  -0.000001
   33  I  1  Z    0.001490  -0.000512   0.000007  -0.000036  -0.000001
   34  I  1 XX    0.000002   0.000002  -0.000000  -0.000000   0.006270
   35  I  1 YY    0.000087   0.000030  -0.006009  -0.011333  -0.002381
   36  I  1 ZZ   -0.000089  -0.000032   0.006009   0.011333  -0.002381
   37  I  1 XY   -0.005229  -0.015225   0.000084   0.000017   0.000001
   38  I  1 XZ   -0.015225   0.005229  -0.000015   0.000081   0.000001
   39  I  1 YZ   -0.000039   0.000101  -0.013086   0.006939  -0.000000
   40  C  2  S   -0.000000   0.000000   0.000000  -0.000000   0.987403
   41  C  2  S   -0.000000   0.000000   0.000000  -0.000000   0.100436
   42  C  2  X   -0.000000  -0.000000   0.000000   0.000000   0.001083
   43  C  2  Y    0.000312   0.000909  -0.000234  -0.000046   0.000000
   44  C  2  Z    0.000910  -0.000312   0.000046  -0.000234  -0.000000
   45  C  2  S    0.000000  -0.000000  -0.000000   0.000000  -0.072728
   46  C  2  X    0.000000   0.000001  -0.000000  -0.000000  -0.003021
   47  C  2  Y   -0.002052  -0.005975   0.001246   0.000248  -0.000000
   48  C  2  Z   -0.005976   0.002052  -0.000248   0.001246   0.000001
   49  H  3  S    0.001249  -0.000129   0.000005   0.000171  -0.000239
   50  H  3  S    0.002078  -0.000215  -0.000046  -0.001464   0.013507
   51  H  4  S   -0.000736  -0.001017  -0.000150  -0.000081  -0.000239
   52  H  4  S   -0.001225  -0.001692   0.001291   0.000692   0.013507
   53  H  5  S   -0.000513   0.001146   0.000145  -0.000090  -0.000239
   54  H  5  S   -0.000854   0.001907  -0.001245   0.000772   0.013507

                     16         17         18         19         20
                   -7.2465    -5.3795    -5.3681    -5.3681    -2.4193
                     A          A          A          A          A   
    1  I  1  S   -0.068055  -0.000405  -0.000000   0.000000   0.000330
    2  I  1  S    0.258560   0.001572   0.000000  -0.000000  -0.000919
    3  I  1  X   -0.001092   0.204945  -0.000015  -0.000015   0.000805
    4  I  1  Y   -0.000000   0.000019   0.063292   0.195051   0.000000
    5  I  1  Z   -0.000000   0.000010   0.195051  -0.063292   0.000000
    6  I  1  S   -0.689453  -0.003996  -0.000000   0.000000   0.004190
    7  I  1  X    0.003682  -0.701791   0.000051   0.000053  -0.002795
    8  I  1  Y    0.000000  -0.000066  -0.216770  -0.668039  -0.000000
    9  I  1  Z    0.000000  -0.000033  -0.668039   0.216770  -0.000000
   10  I  1 XX    0.010012   0.001570  -0.000000  -0.000000  -0.405687
   11  I  1 YY    0.011493  -0.000761   0.000003   0.000001   0.202686
   12  I  1 ZZ    0.011493  -0.000761  -0.000003  -0.000001   0.202687
   13  I  1 XY   -0.000000   0.000000   0.000415   0.001278  -0.000066
   14  I  1 XZ   -0.000000   0.000000   0.001278  -0.000415  -0.000033
   15  I  1 YZ   -0.000000   0.000000  -0.000001   0.000003   0.000000
   16  I  1  S    1.120668   0.012745   0.000000  -0.000000  -0.009653
   17  I  1  X   -0.005883   1.163860  -0.000085  -0.000087   0.004813
   18  I  1  Y   -0.000001   0.000109   0.359702   1.108525   0.000000
   19  I  1  Z   -0.000000   0.000054   1.108525  -0.359702   0.000000
   20  I  1 XX    0.015120  -0.007402   0.000000   0.000000   1.057646
   21  I  1 YY    0.011579  -0.001351  -0.000006  -0.000003  -0.522943
   22  I  1 ZZ    0.011579  -0.001351   0.000006   0.000002  -0.522945
   23  I  1 XY    0.000000  -0.000001  -0.001045  -0.003222   0.000171
   24  I  1 XZ    0.000000  -0.000000  -0.003222   0.001045   0.000085
   25  I  1 YZ    0.000000  -0.000000   0.000002  -0.000007  -0.000000
   26  I  1  S    0.001810   0.001476   0.000000  -0.000000   0.007589
   27  I  1  X   -0.000808   0.031999  -0.000002  -0.000002  -0.001757
   28  I  1  Y   -0.000000   0.000003   0.008953   0.027592  -0.000000
   29  I  1  Z   -0.000000   0.000001   0.027592  -0.008953  -0.000000
   30  I  1  S   -0.018812   0.001755   0.000000  -0.000000  -0.017133
   31  I  1  X    0.000152  -0.004110   0.000000   0.000000   0.010729
   32  I  1  Y    0.000000  -0.000000  -0.000845  -0.002604   0.000001
   33  I  1  Z   -0.000000  -0.000000  -0.002604   0.000845   0.000001
   34  I  1 XX    0.010789  -0.000299  -0.000000  -0.000000   0.006756
   35  I  1 YY    0.010486  -0.000947  -0.000000  -0.000000  -0.000981
   36  I  1 ZZ    0.010486  -0.000947   0.000000   0.000000  -0.000981
   37  I  1 XY    0.000000   0.000000   0.000052   0.000159   0.000001
   38  I  1 XZ    0.000000   0.000000   0.000159  -0.000052   0.000000
   39  I  1 YZ   -0.000000   0.000000   0.000000  -0.000000  -0.000000
   40  C  2  S    0.000057   0.000084  -0.000000  -0.000000  -0.002936
   41  C  2  S    0.000453  -0.000069   0.000000   0.000000  -0.001099
   42  C  2  X   -0.000226   0.000131  -0.000000   0.000000   0.004861
   43  C  2  Y   -0.000000   0.000000   0.000001   0.000002   0.000000
   44  C  2  Z   -0.000000   0.000000   0.000002  -0.000001   0.000000
   45  C  2  S   -0.001774   0.000248  -0.000000  -0.000000   0.017991
   46  C  2  X   -0.000057  -0.000408   0.000000   0.000000   0.010167
   47  C  2  Y   -0.000000  -0.000000  -0.000016  -0.000049   0.000001
   48  C  2  Z    0.000000  -0.000000  -0.000049   0.000016   0.000000
   49  H  3  S    0.000120  -0.000057   0.000006  -0.000001  -0.000941
   50  H  3  S    0.000716  -0.000428   0.000166  -0.000014   0.000068
   51  H  4  S    0.000120  -0.000057  -0.000003  -0.000005  -0.000941
   52  H  4  S    0.000716  -0.000428  -0.000095  -0.000136   0.000068
   53  H  5  S    0.000120  -0.000057  -0.000002   0.000005  -0.000941
   54  H  5  S    0.000716  -0.000428  -0.000070   0.000150   0.000068

                     21         22         23         24         25
                   -2.4138    -2.4138    -2.4013    -2.4013    -0.9936
                     A          A          A          A          A   
    1  I  1  S   -0.000000   0.000000   0.000000  -0.000000   0.007923
    2  I  1  S   -0.000000   0.000000  -0.000000   0.000000  -0.028147
    3  I  1  X   -0.000000  -0.000000  -0.000000  -0.000000   0.009059
    4  I  1  Y    0.000219   0.000671   0.000005   0.000001   0.000001
    5  I  1  Z    0.000671  -0.000219  -0.000001   0.000005   0.000000
    6  I  1  S   -0.000000   0.000000   0.000000  -0.000000   0.089521
    7  I  1  X    0.000000   0.000000   0.000000   0.000000  -0.033032
    8  I  1  Y   -0.000769  -0.002354  -0.000020  -0.000005  -0.000003
    9  I  1  Z   -0.002354   0.000769   0.000005  -0.000020  -0.000002
   10  I  1 XX    0.000051   0.000052  -0.000000   0.000000   0.010090
   11  I  1 YY   -0.000162  -0.000117  -0.153714  -0.315622  -0.007679
   12  I  1 ZZ    0.000110   0.000065   0.153714   0.315622  -0.007679
   13  I  1 XY   -0.125946  -0.385442   0.000213   0.000068   0.000002
   14  I  1 XZ   -0.385442   0.125946  -0.000016   0.000146   0.000001
   15  I  1 YZ    0.000021  -0.000170  -0.364449   0.177494   0.000000
   16  I  1  S    0.000000  -0.000000  -0.000000   0.000000  -0.167434
   17  I  1  X   -0.000000  -0.000000  -0.000000  -0.000000   0.071513
   18  I  1  Y    0.001371   0.004196   0.000046   0.000011   0.000007
   19  I  1  Z    0.004196  -0.001371  -0.000011   0.000046   0.000004
   20  I  1 XX   -0.000134  -0.000136   0.000000  -0.000001  -0.025762
   21  I  1 YY    0.000420   0.000304   0.399421   0.820132   0.022910
   22  I  1 ZZ   -0.000287  -0.000168  -0.399421  -0.820131   0.022910
   23  I  1 XY    0.327224   1.001429  -0.000554  -0.000177  -0.000005
   24  I  1 XZ    1.001429  -0.327224   0.000042  -0.000379  -0.000003
   25  I  1 YZ   -0.000054   0.000440   0.947006  -0.461212  -0.000000
   26  I  1  S    0.000000  -0.000000   0.000000  -0.000000   0.186437
   27  I  1  X    0.000000   0.000000   0.000000   0.000000  -0.075585
   28  I  1  Y   -0.000520  -0.001591  -0.000086  -0.000020  -0.000007
   29  I  1  Z   -0.001591   0.000520   0.000020  -0.000086  -0.000004
   30  I  1  S    0.000000  -0.000000  -0.000000   0.000000   0.089636
   31  I  1  X   -0.000000  -0.000000   0.000000  -0.000000  -0.001305
   32  I  1  Y    0.000614   0.001879   0.000000   0.000000  -0.000000
   33  I  1  Z    0.001879  -0.000614  -0.000000   0.000000   0.000000
   34  I  1 XX   -0.000001  -0.000001  -0.000000  -0.000000   0.028550
   35  I  1 YY    0.000051   0.000021   0.003762   0.007724   0.012744
   36  I  1 ZZ   -0.000050  -0.000020  -0.003762  -0.007724   0.012744
   37  I  1 XY    0.002760   0.008448   0.000069   0.000016   0.000002
   38  I  1 XZ    0.008448  -0.002760  -0.000017   0.000070   0.000000
   39  I  1 YZ   -0.000022   0.000059   0.008918  -0.004343   0.000000
   40  C  2  S   -0.000000   0.000000  -0.000000   0.000000  -0.197427
   41  C  2  S   -0.000000   0.000000  -0.000000  -0.000000   0.188932
   42  C  2  X    0.000000  -0.000000   0.000000   0.000000  -0.018027
   43  C  2  Y    0.000021   0.000064  -0.000142  -0.000033  -0.000002
   44  C  2  Z    0.000064  -0.000021   0.000033  -0.000142  -0.000005
   45  C  2  S    0.000000  -0.000000   0.000000   0.000000   0.593183
   46  C  2  X    0.000000   0.000001  -0.000000  -0.000000   0.007716
   47  C  2  Y   -0.002013  -0.006161   0.000946   0.000222   0.000000
   48  C  2  Z   -0.006162   0.002013  -0.000222   0.000946  -0.000008
   49  H  3  S    0.000951  -0.000084  -0.000000   0.000139   0.119466
   50  H  3  S    0.002600  -0.000229   0.000003  -0.001135   0.015137
   51  H  4  S   -0.000548  -0.000782  -0.000120  -0.000070   0.119466
   52  H  4  S   -0.001499  -0.002137   0.000981   0.000570   0.015134
   53  H  5  S   -0.000403   0.000865   0.000121  -0.000069   0.119466
   54  H  5  S   -0.001102   0.002366  -0.000984   0.000565   0.015134

                     26         27         28         29         30
                   -0.8010    -0.6057    -0.6057    -0.4550    -0.3522
                     A          A          A          A          A   
    1  I  1  S    0.021018  -0.000000   0.000000   0.004803   0.000000
    2  I  1  S   -0.076341   0.000001  -0.000000  -0.018808   0.000000
    3  I  1  X   -0.000275   0.000001   0.000000  -0.045678   0.000004
    4  I  1  Y   -0.000000  -0.002716  -0.008052  -0.000004  -0.018709
    5  I  1  Z   -0.000000  -0.008051   0.002716  -0.000002  -0.055172
    6  I  1  S    0.234146  -0.000003   0.000001   0.050782   0.000000
    7  I  1  X    0.001020  -0.000005  -0.000002   0.167743  -0.000016
    8  I  1  Y    0.000000   0.009961   0.029534   0.000016   0.068812
    9  I  1  Z    0.000000   0.029531  -0.009962   0.000009   0.202919
   10  I  1 XX   -0.002195   0.000001   0.000001  -0.019775  -0.000000
   11  I  1 YY   -0.005345  -0.000360  -0.000136   0.008813   0.000210
   12  I  1 ZZ   -0.005345   0.000358   0.000135   0.008813  -0.000210
   13  I  1 XY    0.000000  -0.002398  -0.007110  -0.000003   0.000167
   14  I  1 XZ    0.000000  -0.007110   0.002398  -0.000002   0.000494
   15  I  1 YZ    0.000000   0.000154  -0.000415   0.000000  -0.000090
   16  I  1  S   -0.471845   0.000005  -0.000002  -0.109817  -0.000000
   17  I  1  X   -0.002240   0.000010   0.000004  -0.374026   0.000037
   18  I  1  Y   -0.000000  -0.022094  -0.065506  -0.000035  -0.154310
   19  I  1  Z   -0.000001  -0.065499   0.022096  -0.000020  -0.455045
   20  I  1 XX    0.017150  -0.000004  -0.000002   0.050946   0.000000
   21  I  1 YY    0.026106   0.001018   0.000384  -0.030285  -0.000600
   22  I  1 ZZ    0.026106  -0.001014  -0.000381  -0.030285   0.000600
   23  I  1 XY   -0.000001   0.006663   0.019754   0.000009  -0.000437
   24  I  1 XZ   -0.000000   0.019754  -0.006664   0.000005  -0.001289
   25  I  1 YZ   -0.000000  -0.000437   0.001174  -0.000000   0.000258
   26  I  1  S    0.481334  -0.000006   0.000002   0.109857   0.000000
   27  I  1  X    0.003939  -0.000012  -0.000004   0.450537  -0.000045
   28  I  1  Y    0.000000   0.026285   0.077933   0.000042   0.188703
   29  I  1  Z    0.000001   0.077925  -0.026288   0.000024   0.556469
   30  I  1  S    0.418180  -0.000009   0.000003   0.257837  -0.000001
   31  I  1  X   -0.004194  -0.000007  -0.000003   0.297197  -0.000043
   32  I  1  Y   -0.000000   0.015797   0.046840   0.000028   0.183701
   33  I  1  Z   -0.000000   0.046832  -0.015800   0.000017   0.541717
   34  I  1 XX    0.064923   0.000004   0.000001  -0.090940   0.000001
   35  I  1 YY    0.042789  -0.001639  -0.000616   0.019548   0.001164
   36  I  1 ZZ    0.042789   0.001636   0.000614   0.019548  -0.001164
   37  I  1 XY    0.000002  -0.005024  -0.014896  -0.000012  -0.001059
   38  I  1 XZ    0.000001  -0.014894   0.005025  -0.000006  -0.003122
   39  I  1 YZ    0.000000   0.000707  -0.001891   0.000000  -0.000501
   40  C  2  S    0.070800  -0.000004   0.000001   0.014865   0.000000
   41  C  2  S   -0.073640   0.000005  -0.000001   0.000155  -0.000000
   42  C  2  X    0.119712  -0.000026  -0.000029  -0.291376   0.000007
   43  C  2  Y    0.000011   0.122737   0.363863  -0.000027  -0.023566
   44  C  2  Z    0.000011   0.363864  -0.122737  -0.000008  -0.069495
   45  C  2  S   -0.224645   0.000010  -0.000003  -0.100269  -0.000002
   46  C  2  X    0.081262  -0.000021  -0.000025  -0.313031   0.000005
   47  C  2  Y    0.000008   0.101774   0.301716  -0.000029  -0.014775
   48  C  2  Z    0.000009   0.301716  -0.101774  -0.000009  -0.043570
   49  H  3  S   -0.071228   0.253413  -0.024765   0.059669  -0.065266
   50  H  3  S   -0.033460   0.201733  -0.019716   0.069209  -0.093500
   51  H  4  S   -0.071230  -0.148155  -0.207078   0.059663   0.038249
   52  H  4  S   -0.033460  -0.117940  -0.164861   0.069202   0.054795
   53  H  5  S   -0.071231  -0.105259   0.231844   0.059662   0.027018
   54  H  5  S   -0.033460  -0.083793   0.184578   0.069201   0.038706

                     31         32         33         34         35
                   -0.3522     0.1159     0.2622     0.3120     0.3120
                     A          A          A          A          A   
    1  I  1  S   -0.000000  -0.005355  -0.011033  -0.000000   0.000001
    2  I  1  S   -0.000000   0.021125  -0.005603  -0.000000   0.000001
    3  I  1  X    0.000004  -0.032777  -0.006922  -0.000000  -0.000000
    4  I  1  Y   -0.055172  -0.000003  -0.000001   0.001797   0.000609
    5  I  1  Z    0.018709  -0.000002  -0.000000  -0.000608   0.001798
    6  I  1  S   -0.000000  -0.056206  -0.221174  -0.000003   0.000013
    7  I  1  X   -0.000016   0.120563   0.025697   0.000001   0.000001
    8  I  1  Y    0.202918   0.000011   0.000002  -0.006794  -0.002301
    9  I  1  Z   -0.068811   0.000006   0.000002   0.002299  -0.006798
   10  I  1 XX   -0.000000   0.042656   0.006484  -0.000003  -0.000004
   11  I  1 YY    0.000078  -0.020254   0.013292  -0.004649  -0.012458
   12  I  1 ZZ   -0.000078  -0.020254   0.013293   0.004652   0.012460
   13  I  1 XY    0.000494   0.000007  -0.000001   0.025935   0.008778
   14  I  1 XZ   -0.000167   0.000003   0.000000  -0.008776   0.025933
   15  I  1 YZ    0.000242  -0.000000   0.000000  -0.014386   0.005375
   16  I  1  S    0.000000   0.159768   0.404240   0.000005  -0.000021
   17  I  1  X    0.000035  -0.269829  -0.060432  -0.000001  -0.000002
   18  I  1  Y   -0.455044  -0.000025  -0.000006   0.017480   0.005919
   19  I  1  Z    0.154310  -0.000013  -0.000004  -0.005916   0.017489
   20  I  1 XX    0.000000  -0.138381  -0.381401   0.000004   0.000032
   21  I  1 YY   -0.000224   0.040199  -0.400856   0.013540   0.036323
   22  I  1 ZZ    0.000224   0.040199  -0.400859  -0.013562  -0.036288
   23  I  1 XY   -0.001290  -0.000019   0.000002  -0.074850  -0.025333
   24  I  1 XZ    0.000437  -0.000010  -0.000000   0.025327  -0.074843
   25  I  1 YZ   -0.000693   0.000000  -0.000001   0.041921  -0.015664
   26  I  1  S   -0.000000  -0.098726  -0.670567  -0.000010   0.000040
   27  I  1  X   -0.000043   0.272661   0.120706   0.000005   0.000005
   28  I  1  Y    0.556468   0.000026   0.000011  -0.065934  -0.022320
   29  I  1  Z   -0.188703   0.000013   0.000008   0.022315  -0.065954
   30  I  1  S    0.000000  -0.349422   2.451355   0.000039  -0.000149
   31  I  1  X   -0.000042   0.896259  -0.018035  -0.000015  -0.000008
   32  I  1  Y    0.541716   0.000084  -0.000002   0.178218   0.060318
   33  I  1  Z   -0.183701   0.000042  -0.000002  -0.060315   0.178232
   34  I  1 XX    0.000000   0.098718  -0.718352  -0.000029   0.000019
   35  I  1 YY    0.000433  -0.101278  -0.674024  -0.034457  -0.092252
   36  I  1 ZZ   -0.000434  -0.101278  -0.674015   0.034455   0.092350
   37  I  1 XY   -0.003121   0.000022  -0.000005   0.142445   0.048212
   38  I  1 XZ    0.001058   0.000011   0.000001  -0.048197   0.142424
   39  I  1 YZ    0.001344  -0.000000   0.000004  -0.106578   0.039817
   40  C  2  S   -0.000000  -0.103294   0.110624  -0.000000   0.000001
   41  C  2  S    0.000000   0.054757  -0.011947   0.000001  -0.000003
   42  C  2  X    0.000005   0.270120   0.152430   0.000019   0.000018
   43  C  2  Y   -0.069499   0.000025   0.000014  -0.238189  -0.080611
   44  C  2  Z    0.023568   0.000011   0.000005   0.080611  -0.238191
   45  C  2  S    0.000001   0.896765  -1.730586  -0.000002   0.000009
   46  C  2  X    0.000003   0.635663   0.486521   0.000104   0.000106
   47  C  2  Y   -0.043577   0.000060   0.000046  -1.320450  -0.446912
   48  C  2  Z    0.014777   0.000021   0.000026   0.446880  -1.320546
   49  H  3  S    0.006485  -0.007453   0.016588  -0.008926   0.090381
   50  H  3  S    0.009290  -0.142300   0.790657  -0.162619   1.647099
   51  H  4  S    0.053283  -0.007452   0.016582  -0.073822  -0.052912
   52  H  4  S    0.076334  -0.142302   0.790622  -1.345048  -0.964398
   53  H  5  S   -0.059768  -0.007452   0.016581   0.082745  -0.037456
   54  H  5  S   -0.085624  -0.142303   0.790614   1.507673  -0.682715

                     36         37         38         39         40
                    0.3548     0.5136     0.5136     0.5289     0.5289
                     A          A          A          A          A   
    1  I  1  S   -0.013000   0.000000  -0.000000  -0.000000  -0.000000
    2  I  1  S   -0.020201   0.000000  -0.000000  -0.000000  -0.000000
    3  I  1  X    0.012909  -0.000001  -0.000000   0.000001   0.000000
    4  I  1  Y    0.000001   0.001818   0.005201   0.000051  -0.000153
    5  I  1  Z    0.000001   0.005201  -0.001818   0.000151   0.000051
    6  I  1  S   -0.289812   0.000000  -0.000000  -0.000001  -0.000000
    7  I  1  X   -0.047821   0.000003   0.000001  -0.000003  -0.000001
    8  I  1  Y   -0.000005  -0.006814  -0.019492  -0.000195   0.000589
    9  I  1  Z   -0.000003  -0.019491   0.006814  -0.000583  -0.000197
   10  I  1 XX   -0.012565  -0.000012  -0.000012  -0.000009   0.000010
   11  I  1 YY    0.029729   0.067034   0.024289  -0.078561   0.029609
   12  I  1 ZZ    0.029728  -0.067022  -0.024277   0.078570  -0.029619
   13  I  1 XY   -0.000005   0.031028   0.088756   0.023800  -0.071058
   14  I  1 XZ   -0.000001   0.088774  -0.031037   0.071036   0.023789
   15  I  1 YZ   -0.000000  -0.028017   0.077408   0.034214   0.090711
   16  I  1  S    0.489495  -0.000001   0.000000   0.000001   0.000000
   17  I  1  X    0.110794  -0.000007  -0.000003   0.000006   0.000002
   18  I  1  Y    0.000011   0.016711   0.047803   0.000540  -0.001628
   19  I  1  Z    0.000008   0.047800  -0.016712   0.001613   0.000545
   20  I  1 XX   -0.475963   0.000036   0.000035   0.000025  -0.000029
   21  I  1 YY   -0.598687  -0.196882  -0.071338   0.230870  -0.087015
   22  I  1 ZZ   -0.598685   0.196850   0.071302  -0.230899   0.087043
   23  I  1 XY    0.000013  -0.091149  -0.260734  -0.069974   0.208919
   24  I  1 XZ    0.000003  -0.260789   0.091177  -0.208852  -0.069941
   25  I  1 YZ    0.000001   0.082287  -0.227352  -0.100546  -0.266576
   26  I  1  S   -0.924498   0.000001  -0.000000  -0.000004  -0.000001
   27  I  1  X   -0.175542   0.000017   0.000007  -0.000015  -0.000005
   28  I  1  Y   -0.000017  -0.041830  -0.119655  -0.001698   0.005103
   29  I  1  Z   -0.000016  -0.119649   0.041831  -0.005069  -0.001709
   30  I  1  S    3.762257  -0.000005   0.000002   0.000011   0.000003
   31  I  1  X   -0.147372  -0.000016  -0.000006   0.000011   0.000002
   32  I  1  Y   -0.000013   0.036903   0.105561  -0.002042   0.006071
   33  I  1  Z    0.000004   0.105557  -0.036904  -0.006097  -0.002034
   34  I  1 XX   -1.170895  -0.000095  -0.000100  -0.000078   0.000082
   35  I  1 YY   -0.895806   0.551702   0.199899  -0.651394   0.245506
   36  I  1 ZZ   -0.895810  -0.551602  -0.199801   0.651465  -0.245590
   37  I  1 XY   -0.000029   0.256552   0.733874   0.199921  -0.596904
   38  I  1 XZ   -0.000009   0.734028  -0.256632   0.596713   0.199831
   39  I  1 YZ   -0.000002  -0.230581   0.637080   0.283685   0.752132
   40  C  2  S   -0.087057   0.000001  -0.000000  -0.000001  -0.000000
   41  C  2  S    0.022620  -0.000001   0.000000   0.000001   0.000000
   42  C  2  X   -0.140034  -0.000008  -0.000011  -0.000018   0.000016
   43  C  2  Y   -0.000014   0.046253   0.132283   0.068205  -0.203667
   44  C  2  Z   -0.000018   0.132300  -0.046247   0.203653   0.068210
   45  C  2  S    1.258098  -0.000013   0.000004   0.000014   0.000004
   46  C  2  X   -0.493257  -0.000008  -0.000007  -0.000028   0.000020
   47  C  2  Y   -0.000051   0.030960   0.088541   0.091907  -0.274437
   48  C  2  Z   -0.000089   0.088560  -0.030955   0.274426   0.091911
   49  H  3  S   -0.005968   0.125749  -0.013685   0.090234   0.008621
   50  H  3  S   -0.799732  -0.233554   0.025414  -0.505315  -0.048283
   51  H  4  S   -0.005966  -0.074730  -0.102052  -0.052589   0.073835
   52  H  4  S   -0.799802   0.138801   0.189525   0.294462  -0.413494
   53  H  5  S   -0.005965  -0.051025   0.115738  -0.037656  -0.082459
   54  H  5  S   -0.799814   0.094774  -0.214945   0.210840   0.461773

                     41         42         43         44         45
                    0.5789     0.5974     0.5974     0.7610     1.0123
                     A          A          A          A          A   
    1  I  1  S   -0.000733  -0.000000   0.000000  -0.004646   0.000017
    2  I  1  S    0.001831  -0.000000   0.000000  -0.020966  -0.000086
    3  I  1  X   -0.066784   0.000005   0.000005  -0.027034  -0.000020
    4  I  1  Y   -0.000006  -0.066927  -0.022123  -0.000003  -0.002826
    5  I  1  Z   -0.000003   0.022123  -0.066927  -0.000002   0.000943
    6  I  1  S   -0.010230  -0.000000   0.000000  -0.134187   0.000145
    7  I  1  X    0.249973  -0.000019  -0.000020   0.101548   0.000078
    8  I  1  Y    0.000023   0.250671   0.082860   0.000010   0.010809
    9  I  1  Z    0.000011  -0.082860   0.250671   0.000007  -0.003607
   10  I  1 XX   -0.051663  -0.000001  -0.000002   0.116455   0.000160
   11  I  1 YY    0.026423   0.001807   0.004735  -0.045316  -0.001458
   12  I  1 ZZ    0.026425  -0.001806  -0.004733  -0.045315   0.001295
   13  I  1 XY   -0.000008   0.007242   0.002393   0.000018   0.042615
   14  I  1 XZ   -0.000004  -0.002394   0.007242   0.000010  -0.014220
   15  I  1 YZ    0.000001   0.005466  -0.002085   0.000000  -0.004213
   16  I  1  S   -0.039555  -0.000000   0.000000   0.024434   0.000678
   17  I  1  X   -0.609645   0.000047   0.000048  -0.252662  -0.000226
   18  I  1  Y   -0.000056  -0.612759  -0.202550  -0.000024  -0.029320
   19  I  1  Z   -0.000027   0.202549  -0.612760  -0.000019   0.009784
   20  I  1 XX    0.184284   0.000002   0.000006  -0.507390  -0.001320
   21  I  1 YY   -0.046023  -0.005320  -0.013940  -0.024755   0.003458
   22  I  1 ZZ   -0.046028   0.005318   0.013935  -0.024757  -0.004682
   23  I  1 XY    0.000025  -0.021383  -0.007067  -0.000052  -0.127956
   24  I  1 XZ    0.000011   0.007070  -0.021383  -0.000029   0.042697
   25  I  1 YZ   -0.000002  -0.016091   0.006138  -0.000001   0.012458
   26  I  1  S   -0.064004  -0.000001   0.000001  -0.593165   0.001163
   27  I  1  X    1.484583  -0.000116  -0.000119   0.766501   0.001000
   28  I  1  Y    0.000137   1.510450   0.499284   0.000073   0.138820
   29  I  1  Z    0.000066  -0.499284   1.510452   0.000054  -0.046323
   30  I  1  S   -0.074203   0.000002  -0.000005   2.176943   0.002843
   31  I  1  X   -1.198150   0.000101   0.000109  -1.659684  -0.000195
   32  I  1  Y   -0.000111  -1.322733  -0.437234  -0.000157  -0.384210
   33  I  1  Z   -0.000054   0.437233  -1.322735  -0.000099   0.128208
   34  I  1 XX   -0.439662  -0.000006  -0.000017   0.886974  -0.000980
   35  I  1 YY    0.256192   0.015274   0.040023  -0.905303  -0.014416
   36  I  1 ZZ    0.256206  -0.015267  -0.040006  -0.905298   0.009714
   37  I  1 XY   -0.000075   0.061834   0.020435   0.000195   0.484055
   38  I  1 XZ   -0.000032  -0.020444   0.061835   0.000108  -0.161522
   39  I  1 YZ    0.000006   0.046199  -0.017623   0.000002  -0.036958
   40  C  2  S   -0.048014   0.000000  -0.000001   0.020841   0.000182
   41  C  2  S    0.122852  -0.000001   0.000002   0.001653   0.000054
   42  C  2  X    0.078543  -0.000000  -0.000005   0.061189  -0.003450
   43  C  2  Y    0.000007   0.015207   0.005021   0.000005  -0.724726
   44  C  2  Z    0.000004  -0.005026   0.015190  -0.000025   0.241836
   45  C  2  S    0.161225  -0.000003   0.000013  -0.411965  -0.001831
   46  C  2  X    0.172259   0.000002   0.000011  -1.344255   0.003939
   47  C  2  Y    0.000016  -0.051398  -0.017000  -0.000126   1.565939
   48  C  2  Z    0.000011   0.016990  -0.051429  -0.000050  -0.522542
   49  H  3  S    0.059437  -0.007118   0.077706  -0.183335   0.055301
   50  H  3  S   -0.223704  -0.012265   0.133979  -0.301834   0.025651
   51  H  4  S    0.059436  -0.063742  -0.045013  -0.183304   0.472191
   52  H  4  S   -0.223687  -0.109853  -0.077627  -0.301872   0.220282
   53  H  5  S    0.059436   0.070859  -0.032686  -0.183296  -0.524647
   54  H  5  S   -0.223682   0.122122  -0.056372  -0.301880  -0.245105

                     46         47         48         49         50
                    1.0123     1.0130     1.3249     1.3250     1.3763
                     A          A          A          A          A   
    1  I  1  S   -0.000058   0.004651  -0.000000   0.000000   0.001770
    2  I  1  S    0.000297  -0.023404  -0.000000   0.000002  -0.030706
    3  I  1  X    0.000070  -0.005474   0.000000   0.000000   0.000293
    4  I  1  Y   -0.000943  -0.000002  -0.003191  -0.001084   0.000000
    5  I  1  Z   -0.002824  -0.000039   0.001084  -0.003191  -0.000000
    6  I  1  S   -0.000502   0.040528  -0.000002   0.000007  -0.030999
    7  I  1  X   -0.000274   0.021338  -0.000001  -0.000000  -0.000933
    8  I  1  Y    0.003606   0.000008   0.012087   0.004107   0.000000
    9  I  1  Z    0.010804   0.000150  -0.004107   0.012088   0.000002
   10  I  1 XX   -0.000578   0.044743   0.000000  -0.000004   0.033007
   11  I  1 YY   -0.003357  -0.022868   0.001579   0.004242  -0.010334
   12  I  1 ZZ    0.003944  -0.022785  -0.001578  -0.004239  -0.010334
   13  I  1 XY    0.014222   0.000032   0.005851   0.001989   0.000005
   14  I  1 XZ    0.042611   0.000596  -0.001989   0.005854   0.000004
   15  I  1 YZ    0.001599   0.000036   0.004897  -0.001821   0.000000
   16  I  1  S   -0.002347   0.186004  -0.000001   0.000003   0.093444
   17  I  1  X    0.000792  -0.061771   0.000003   0.000001  -0.000192
   18  I  1  Y   -0.009781  -0.000022  -0.030999  -0.010534  -0.000000
   19  I  1  Z   -0.029307  -0.000408   0.010534  -0.031000  -0.000004
   20  I  1 XX    0.004645  -0.363867  -0.000003   0.000022  -0.328699
   21  I  1 YY    0.012875  -0.165261  -0.004728  -0.012691  -0.196696
   22  I  1 ZZ   -0.008712  -0.165505   0.004723   0.012700  -0.196695
   23  I  1 XY   -0.042702  -0.000094  -0.016920  -0.005751  -0.000015
   24  I  1 XZ   -0.127946  -0.001789   0.005751  -0.016929  -0.000013
   25  I  1 YZ   -0.004728  -0.000106  -0.014662   0.005452  -0.000000
   26  I  1  S   -0.004028   0.322765  -0.000009   0.000034  -0.064264
   27  I  1  X   -0.003511   0.273952  -0.000006  -0.000012   0.090923
   28  I  1  Y    0.046318   0.000104   0.092539   0.031448   0.000009
   29  I  1  Z    0.138782   0.001935  -0.031446   0.092547   0.000019
   30  I  1  S   -0.009840   0.766931   0.000039  -0.000146   1.873414
   31  I  1  X    0.000808  -0.053225  -0.000018   0.000091  -0.762801
   32  I  1  Y   -0.128215  -0.000223  -0.065175  -0.022155  -0.000073
   33  I  1  Z   -0.384169  -0.005339   0.022147  -0.065198  -0.000056
   34  I  1 XX    0.003102  -0.255074   0.000007  -0.000037  -0.039791
   35  I  1 YY   -0.023742  -0.648957   0.016047   0.043191  -0.701991
   36  I  1 ZZ    0.040307  -0.648233  -0.016067  -0.043103  -0.701991
   37  I  1 XY    0.161544   0.000318   0.017191   0.005848   0.000073
   38  I  1 XZ    0.484025   0.006750  -0.005847   0.017225   0.000054
   39  I  1 YZ    0.014037   0.000314   0.049831  -0.018534   0.000000
   40  C  2  S   -0.000630   0.049667   0.000003  -0.000011   0.107498
   41  C  2  S   -0.000186   0.013232  -0.000003   0.000016  -0.310045
   42  C  2  X    0.012194  -0.959220  -0.000046  -0.000125   0.576498
   43  C  2  Y   -0.241860  -0.000502   0.792202   0.269194   0.000061
   44  C  2  Z   -0.724689  -0.010118  -0.269198   0.792190   0.000098
   45  C  2  S    0.006333  -0.499416  -0.000003   0.000007   0.225984
   46  C  2  X   -0.014186   1.118796   0.000040   0.000186  -1.014893
   47  C  2  Y    0.522646   0.000997  -0.894698  -0.304006  -0.000100
   48  C  2  Z    1.566011   0.021854   0.304027  -0.894635  -0.000085
   49  H  3  S   -0.578745   0.251066   0.090285  -0.902902   0.678491
   50  H  3  S   -0.269843   0.076131  -0.134675   1.346797  -0.734020
   51  H  4  S    0.331539   0.261064   0.736740   0.529533   0.678627
   52  H  4  S    0.155492   0.080864  -1.099028  -0.789912  -0.734152
   53  H  5  S    0.237361   0.263518  -0.826977   0.373179   0.678654
   54  H  5  S    0.111486   0.082023   1.233652  -0.556683  -0.734174

                     51         52         53         54
                    1.4491     2.0325     7.0257   229.8424
                     A          A          A          A   
    1  I  1  S    0.023620   0.002255  -0.052690  -0.683390
    2  I  1  S   -0.109041   0.002700   0.355111   3.921956
    3  I  1  X   -0.002829  -0.012399  -0.001710   0.000085
    4  I  1  Y   -0.000000  -0.000001  -0.000000   0.000000
    5  I  1  Z   -0.000000  -0.000001  -0.000000   0.000000
    6  I  1  S    0.226817   0.050516  -0.170023  20.873420
    7  I  1  X    0.010552   0.046801   0.006406  -0.000343
    8  I  1  Y    0.000001   0.000004   0.000001  -0.000000
    9  I  1  Z    0.000000   0.000002   0.000000  -0.000000
   10  I  1 XX   -0.009066  -0.029999  -0.056892 -10.131611
   11  I  1 YY   -0.000107   0.010378  -0.053964 -10.131826
   12  I  1 ZZ   -0.000107   0.010378  -0.053964 -10.131826
   13  I  1 XY   -0.000001  -0.000004  -0.000000   0.000000
   14  I  1 XZ   -0.000001  -0.000004  -0.000000   0.000000
   15  I  1 YZ    0.000000   0.000000   0.000000  -0.000000
   16  I  1  S    0.709623   0.121114  15.676747  -2.772840
   17  I  1  X   -0.024994  -0.116873  -0.015675   0.000880
   18  I  1  Y   -0.000002  -0.000011  -0.000001   0.000000
   19  I  1  Z   -0.000001  -0.000006  -0.000001   0.000000
   20  I  1 XX   -0.950057   0.038109  -8.297204   1.245650
   21  I  1 YY   -0.977037  -0.089069  -8.306145   1.246389
   22  I  1 ZZ   -0.977037  -0.089070  -8.306145   1.246389
   23  I  1 XY    0.000003   0.000014   0.000001  -0.000000
   24  I  1 XZ    0.000004   0.000011   0.000001  -0.000000
   25  I  1 YZ   -0.000000  -0.000000  -0.000000   0.000000
   26  I  1  S    1.662343   0.353991   6.867720  -0.849364
   27  I  1  X    0.048052   0.215815   0.037729  -0.002111
   28  I  1  Y    0.000004   0.000020   0.000004  -0.000000
   29  I  1  Z   -0.000000   0.000009   0.000002  -0.000000
   30  I  1  S    4.180167  -0.510008   2.998176  -0.247893
   31  I  1  X   -0.070981   0.704212  -0.013105  -0.000501
   32  I  1  Y   -0.000006   0.000066  -0.000001  -0.000000
   33  I  1  Z    0.000005   0.000046   0.000000  -0.000000
   34  I  1 XX   -2.286522  -0.792377  -2.325824   0.219553
   35  I  1 YY   -2.219476   0.060510  -2.285934   0.215896
   36  I  1 ZZ   -2.219476   0.060513  -2.285934   0.215896
   37  I  1 XY   -0.000008  -0.000093  -0.000004   0.000000
   38  I  1 XZ   -0.000014  -0.000065  -0.000004   0.000000
   39  I  1 YZ    0.000000   0.000001   0.000000  -0.000000
   40  C  2  S   -0.048964  -0.045183  -0.008128   0.000374
   41  C  2  S    0.148529  -2.033840  -0.031872   0.001764
   42  C  2  X    0.219294  -0.130408   0.049899  -0.002908
   43  C  2  Y    0.000020  -0.000012   0.000005  -0.000000
   44  C  2  Z    0.000012   0.000009   0.000004  -0.000000
   45  C  2  S    0.101624   3.949361   0.206282  -0.014501
   46  C  2  X   -0.157027   0.411399  -0.007521  -0.001117
   47  C  2  Y   -0.000016   0.000034  -0.000001  -0.000000
   48  C  2  Z   -0.000040  -0.000081  -0.000011   0.000001
   49  H  3  S   -0.146864  -0.230815  -0.016175   0.001135
   50  H  3  S   -0.057221  -0.630794  -0.088449   0.005864
   51  H  4  S   -0.146890  -0.230852  -0.016178   0.001135
   52  H  4  S   -0.057222  -0.630824  -0.088453   0.005865
   53  H  5  S   -0.146895  -0.230862  -0.016178   0.001135
   54  H  5  S   -0.057224  -0.630830  -0.088454   0.005865
 ...... END OF RHF CALCULATION ......
 STEP CPU TIME =     0.15 TOTAL CPU TIME =        0.3 (    0.0 MIN)
 TOTAL WALL CLOCK TIME=        0.3 SECONDS, CPU UTILIZATION IS  96.88%

     ----------------------------------------------------------------
     PROPERTY VALUES FOR THE RHF   SELF-CONSISTENT FIELD WAVEFUNCTION
     ----------------------------------------------------------------

          -----------------
          ENERGY COMPONENTS
          -----------------

         WAVEFUNCTION NORMALIZATION =       1.0000000000

                ONE ELECTRON ENERGY =   -9763.6270768696
                TWO ELECTRON ENERGY =    2718.3104050974
           NUCLEAR REPULSION ENERGY =     118.0129205090
                                      ------------------
                       TOTAL ENERGY =   -6927.3037512632

 ELECTRON-ELECTRON POTENTIAL ENERGY =    2718.3104050974
  NUCLEUS-ELECTRON POTENTIAL ENERGY =  -16669.6484399126
   NUCLEUS-NUCLEUS POTENTIAL ENERGY =     118.0129205090
                                      ------------------
             TOTAL POTENTIAL ENERGY =  -13833.3251143063
               TOTAL KINETIC ENERGY =    6906.0213630430
                 VIRIAL RATIO (V/T) =       2.0030817148

          ---------------------------------------
          MULLIKEN AND LOWDIN POPULATION ANALYSES
          ---------------------------------------

     ATOMIC MULLIKEN POPULATION IN EACH MOLECULAR ORBITAL

                      1          2          3          4          5

                  2.000000   2.000000   2.000000   2.000000   2.000000

    1             2.000000   2.000003   2.000001   2.000000   2.000000
    2             0.000000  -0.000003  -0.000001   0.000000   0.000000
    3            -0.000000   0.000000   0.000000   0.000000   0.000000
    4            -0.000000   0.000000   0.000000   0.000000   0.000000
    5            -0.000000   0.000000   0.000000   0.000000   0.000000

                      6          7          8          9         10

                  2.000000   2.000000   2.000000   2.000000   2.000000

    1             2.000009   1.999989   2.000000   2.000000   1.999937
    2            -0.000010   0.000015   0.000000   0.000000   0.000063
    3             0.000000  -0.000001  -0.000000  -0.000000   0.000000
    4             0.000000  -0.000001  -0.000000  -0.000000   0.000000
    5             0.000000  -0.000001  -0.000000  -0.000000   0.000000

                     11         12         13         14         15

                  2.000000   2.000000   2.000000   2.000000   2.000000

    1             1.999992   1.999992   2.000000   2.000000   0.002079
    2             0.000009   0.000009  -0.000000  -0.000000   1.989726
    3            -0.000001  -0.000000   0.000000   0.000000   0.002732
    4            -0.000000  -0.000000   0.000000   0.000000   0.002732
    5            -0.000000  -0.000000   0.000000   0.000000   0.002732

                     16         17         18         19         20

                  2.000000   2.000000   2.000000   2.000000   2.000000

    1             2.000087   1.999923   2.000000   2.000000   1.997283
    2            -0.000124   0.000052  -0.000002  -0.000002   0.002721
    3             0.000012   0.000008   0.000001   0.000000  -0.000001
    4             0.000012   0.000008   0.000000   0.000001  -0.000001
    5             0.000012   0.000008   0.000000   0.000001  -0.000001

                     21         22         23         24         25

                  2.000000   2.000000   2.000000   2.000000   2.000000

    1             1.999663   1.999663   1.999995   1.999995   0.279666
    2             0.000404   0.000404   0.000000   0.000000   1.391879
    3            -0.000044  -0.000000   0.000000   0.000004   0.109487
    4            -0.000015  -0.000030   0.000003   0.000001   0.109485
    5            -0.000008  -0.000037   0.000003   0.000001   0.109484

                     26         27         28         29         30

                  2.000000   2.000000   2.000000   2.000000   2.000000

    1             1.597394   0.054302   0.054312   1.133197   1.943565
    2             0.274613   1.139116   1.139105   0.781111   0.016507
    3             0.042662   0.532631   0.005087   0.028568   0.026358
    4             0.042665   0.182055   0.355667   0.028563   0.009053
    5             0.042665   0.091896   0.445828   0.028561   0.004517

                     31

                  2.000000

    1             1.943556
    2             0.016510
    3             0.000260
    4             0.017568
    5             0.022105

               ----- POPULATIONS IN EACH AO -----
                             MULLIKEN      LOWDIN
              1  I  1  S      1.98233     1.99701
              2  I  1  S      2.06554     1.95659
              3  I  1  X      1.99919     1.99920
              4  I  1  Y      1.99939     1.99943
              5  I  1  Z      1.99939     1.99943
              6  I  1  S      2.12893     0.91618
              7  I  1  X      1.99874     1.98948
              8  I  1  Y      1.99912     1.99295
              9  I  1  Z      1.99912     1.99295
             10  I  1 XX      1.26891     1.70173
             11  I  1 YY      1.26947     1.70179
             12  I  1 ZZ      1.26947     1.70179
             13  I  1 XY      1.99611     1.99418
             14  I  1 XZ      1.99611     1.99418
             15  I  1 YZ      1.99628     1.99427
             16  I  1  S      2.01258     0.98003
             17  I  1  X      1.98389     1.88856
             18  I  1  Y      1.99085     1.92966
             19  I  1  Z      1.99085     1.92966
             20  I  1 XX      1.34812     1.64415
             21  I  1 YY      1.34006     1.64225
             22  I  1 ZZ      1.34006     1.64225
             23  I  1 XY      1.99823     1.93888
             24  I  1 XZ      1.99823     1.93888
             25  I  1 YZ      1.99752     1.93877
             26  I  1  S      0.92691     0.70137
             27  I  1  X      0.64348     0.66351
             28  I  1  Y      0.96984     0.98764
             29  I  1  Z      0.96984     0.98764
             30  I  1  S      0.76005     0.47963
             31  I  1  X      0.41389     0.55500
             32  I  1  Y      1.03379     1.07799
             33  I  1  Z      1.03379     1.07799
             34  I  1 XX      0.11480     0.31751
             35  I  1 YY      0.07160     0.29528
             36  I  1 ZZ      0.07160     0.29528
             37  I  1 XY      0.01014     0.07680
             38  I  1 XZ      0.01014     0.07680
             39  I  1 YZ      0.00625     0.06703
             40  C  2  S      1.98804     1.97695
             41  C  2  S      0.35880     0.42783
             42  C  2  X      0.39311     0.37536
             43  C  2  Y      0.58217     0.54536
             44  C  2  Z      0.58217     0.54537
             45  C  2  S      1.17714     0.61808
             46  C  2  X      0.52296     0.58743
             47  C  2  Y      0.57386     0.60869
             48  C  2  Z      0.57386     0.60868
             49  H  3  S      0.47137     0.46682
             50  H  3  S      0.27640     0.41401
             51  H  4  S      0.47137     0.46683
             52  H  4  S      0.27640     0.41401
             53  H  5  S      0.47136     0.46683
             54  H  5  S      0.27640     0.41400

          ----- MULLIKEN ATOMIC OVERLAP POPULATIONS -----
          (OFF-DIAGONAL ELEMENTS NEED TO BE MULTIPLIED BY 2)

             1           2           3           4           5

    1   52.8785925
    2    0.2386369   5.4207699
    3   -0.0375432   0.3642343   0.4673545
    4   -0.0375421   0.3642310  -0.0231405   0.4673675
    5   -0.0375417   0.3642302  -0.0231424  -0.0231502   0.4673709

          TOTAL MULLIKEN AND LOWDIN ATOMIC POPULATIONS
       ATOM         MULL.POP.    CHARGE          LOW.POP.     CHARGE
    1 I            53.004602   -0.004602        53.063753   -0.063753
    2 C             6.752102   -0.752102         6.293750   -0.293750
    3 H             0.747763    0.252237         0.880833    0.119167
    4 H             0.747766    0.252234         0.880835    0.119165
    5 H             0.747767    0.252233         0.880829    0.119171

          -------------------------------
          BOND ORDER AND VALENCE ANALYSIS     BOND ORDER THRESHOLD=0.050
          -------------------------------

                   BOND                       BOND                       BOND
  ATOM PAIR DIST  ORDER      ATOM PAIR DIST  ORDER      ATOM PAIR DIST  ORDER
    1   2  2.180  0.974        2   3  1.077  0.900        2   4  1.077  0.900
    2   5  1.077  0.900

                       TOTAL       BONDED        FREE
      ATOM            VALENCE     VALENCE     VALENCE
    1 I                 0.976       0.976      -0.000
    2 C                 3.673       3.673       0.000
    3 H                 0.892       0.892       0.000
    4 H                 0.892       0.892       0.000
    5 H                 0.892       0.892      -0.000

          ---------------------
          ELECTROSTATIC MOMENTS
          ---------------------

 POINT   1           X           Y           Z (BOHR)    CHARGE
                 0.129316    0.000214    0.000141        0.00 (A.U.)
         DX          DY          DZ         /D/  (DEBYE)
    -1.885527   -0.000179   -0.000128    1.885527
 ...... END OF PROPERTY EVALUATION ......
 STEP CPU TIME =     0.00 TOTAL CPU TIME =        0.3 (    0.0 MIN)
 TOTAL WALL CLOCK TIME=        0.3 SECONDS, CPU UTILIZATION IS  96.88%
      580000  WORDS OF DYNAMIC MEMORY USED
 EXECUTION OF GAMESS TERMINATED NORMALLY Mon Nov 14 12:18:15 2011
 DDI: 263224 bytes (0.3 MB / 0 MWords) used by master data server.

 ----------------------------------------
 CPU timing information for all processes
 ========================================
 0: 0.272 + 0.48 = 0.320
 ----------------------------------------
 ddikick.x: exited gracefully.
unset echo
----- accounting info -----
Files used on the master node idhi were:
-rw-r--r-- 1 koushik koushik     459 2011-11-14 12:18 /home/koushik/Desktop/gamess/iodomethane.F05
-rw-r--r-- 1 koushik koushik 6660444 2011-11-14 12:18 /home/koushik/Desktop/gamess/iodomethane.F08
-rw-r--r-- 1 koushik koushik  916160 2011-11-14 12:18 /home/koushik/Desktop/gamess/iodomethane.F10
Mon Nov 14 12:18:18 IST 2011
0.0u 0.0s 0:03.39 3.2% 0+0k 0+24io 0pf+0w
