
          ******************************************************
          *         GAMESS VERSION =  1 OCT 2010 (R1)          *
          *             FROM IOWA STATE UNIVERSITY             *
          * M.W.SCHMIDT, K.K.BALDRIDGE, J.A.BOATZ, S.T.ELBERT, *
          *   M.S.GORDON, J.H.JENSEN, S.KOSEKI, N.MATSUNAGA,   *
          *          K.A.NGUYEN, S.J.SU, T.L.WINDUS,           *
          *       TOGETHER WITH M.DUPUIS, J.A.MONTGOMERY       *
          *         J.COMPUT.CHEM.  14, 1347-1363(1993)        *
          **************** 32 BIT LINUX VERSION ****************

  SINCE 1993, STUDENTS AND POSTDOCS WORKING AT IOWA STATE UNIVERSITY
  AND ALSO IN THEIR VARIOUS JOBS AFTER LEAVING ISU HAVE MADE IMPORTANT
  CONTRIBUTIONS TO THE CODE:
     IVANA ADAMOVIC, CHRISTINE AIKENS, YURI ALEXEEV, POOJA ARORA,
     ANDREY ASADCHEV, ROB BELL, PRADIPTA BANDYOPADHYAY, JONATHAN BENTZ,
     BRETT BODE, GALINA CHABAN, WEI CHEN, CHEOL HO CHOI, PAUL DAY, TIM DUDLEY,
     DMITRI FEDOROV, GRAHAM FLETCHER, MARK FREITAG, KURT GLAESEMANN, DAN KEMP,
     GRANT MERRILL, NORIYUKI MINEZAWA, JONATHAN MULLIN, TAKESHI NAGATA,
     SEAN NEDD, HEATHER NETZLOFF, BOSILJKA NJEGIC, RYAN OLSON, MIKE PAK,
     JIM SHOEMAKER, LYUDMILA SLIPCHENKO, SAROM SOK, JIE SONG,
     TETSUYA TAKETSUGU, SIMON WEBB, SOOHAENG YOO, FEDERICO ZAHARIEV

  ADDITIONAL CODE HAS BEEN PROVIDED BY COLLABORATORS IN OTHER GROUPS:
     IOWA STATE UNIVERSITY:
          JOE IVANIC, LAIMUTIS BYTAUTAS, KLAUS RUEDENBERG
     UNIVERSITY OF TOKYO: KIMIHIKO HIRAO, TAKAHITO NAKAJIMA,
          TAKAO TSUNEDA, MUNEAKI KAMIYA, SUSUMU YANAGISAWA,
          KIYOSHI YAGI, MAHITO CHIBA, SEIKEN TOKURA, NAOAKI KAWAKAMI
     UNIVERSITY OF AARHUS: FRANK JENSEN
     UNIVERSITY OF IOWA: VISVALDAS KAIRYS, HUI LI
     NATIONAL INST. OF STANDARDS AND TECHNOLOGY: WALT STEVENS, DAVID GARMER
     UNIVERSITY OF PISA: BENEDETTA MENNUCCI, JACOPO TOMASI
     UNIVERSITY OF MEMPHIS: HENRY KURTZ, PRAKASHAN KORAMBATH
     UNIVERSITY OF ALBERTA: TOBY ZENG, MARIUSZ KLOBUKOWSKI
     UNIVERSITY OF NEW ENGLAND: MARK SPACKMAN
     MIE UNIVERSITY: HIROAKI UMEDA
     MICHIGAN STATE UNIVERSITY:
          KAROL KOWALSKI, MARTA WLOCH, JEFFREY GOUR, JESSE LUTZ, PIOTR PIECUCH
     UNIVERSITY OF SILESIA: MONIKA MUSIAL, STANISLAW KUCHARSKI
     FACULTES UNIVERSITAIRES NOTRE-DAME DE LA PAIX:
          OLIVIER QUINET, BENOIT CHAMPAGNE
     UNIVERSITY OF CALIFORNIA - SANTA BARBARA: BERNARD KIRTMAN
     INSTITUTE FOR MOLECULAR SCIENCE:
          KAZUYA ISHIMURA, MICHIO KATOUDA, AND SHIGERU NAGASE
     UNIVERSITY OF NOTRE DAME: DAN CHIPMAN
     KYUSHU UNIVERSITY:
          HARUYUKI NAKANO,
          FENG LONG GU, JACEK KORCHOWIEC, MARCIN MAKOWSKI, AND YURIKO AOKI,
          HIROTOSHI MORI AND EISAKU MIYOSHI
     PENNSYLVANIA STATE UNIVERSITY:
          TZVETELIN IORDANOV, CHET SWALINA, JONATHAN SKONE,
          SHARON HAMMES-SCHIFFER
     WASEDA UNIVERSITY:
          MASATO KOBAYASHI, TOMOKO AKAMA, HIROMI NAKAI
     UNIVERSITY OF NEBRASKA:
          PEIFENG SU, DEJUN SI, YALI WANG, HUI LI
     UNIVERSITY OF ZURICH:
          ROBERTO PEVERATI, KIM BALDRIDGE
     N. COPERNICUS UNIVERSITY AND JACKSON STATE UNIVERSITY:
          MARIA BARYSZ

 EXECUTION OF GAMESS BEGUN Mon Nov 14 12:13:27 2011

            ECHO OF THE FIRST FEW INPUT CARDS -
 INPUT CARD> $CONTRL RUNTYP=ENERGY COORD=UNIQUE UNITS=ANGS $END                             
 INPUT CARD> $BASIS  GBASIS=N21 NGAUSS=3 NDFUNC=1 $END                                      
 INPUT CARD> $DATA                                                                          
 INPUT CARD>3-21g(d) / Chloromethane single point energy                                    
 INPUT CARD>C1                                                                              
 INPUT CARD>CL         17.0   0.2927797166   0.0263834706  -0.7024208392                    
 INPUT CARD>C           6.0  -0.4016025404  -0.0362405867   0.9635781389                    
 INPUT CARD>H           1.0   0.2694889229  -0.6043184281   1.5842610674                    
 INPUT CARD>H           1.0  -1.3651436035  -0.5123095194   0.9063981462                    
 INPUT CARD>H           1.0  -0.4946724957   0.9732150635   1.3250634869                    
 INPUT CARD> $END                                                                           
    1000000 WORDS OF MEMORY AVAILABLE

     BASIS OPTIONS
     -------------
     GBASIS=N21          IGAUSS=       3      POLAR=COMMON  
     NDFUNC=       1     NFFUNC=       0     DIFFSP=       F
     NPFUNC=       0      DIFFS=       F     BASNAM=        


     RUN TITLE
     ---------
 3-21g(d) / Chloromethane single point energy                                    

 THE POINT GROUP OF THE MOLECULE IS C1      
 THE ORDER OF THE PRINCIPAL AXIS IS     0

 ATOM      ATOMIC                      COORDINATES (BOHR)
           CHARGE         X                   Y                   Z
 CL         17.0     0.5532734391        0.0498575300       -1.3273829142
 C           6.0    -0.7589187573       -0.0684847785        1.8208986503
 H           1.0     0.5092602210       -1.1419962384        2.9938193104
 H           1.0    -2.5797473445       -0.9681246126        1.7128441321
 H           1.0    -0.9347954705        1.8391097971        2.5040069066

          INTERNUCLEAR DISTANCES (ANGS.)
          ------------------------------

                1 CL         2 C          3 H          4 H          5 H     

   1 CL      0.0000000    1.8060014 *  2.3721807 *  2.3721717 *  2.3721854 *
   2 C       1.8060014 *  0.0000000    1.0762544 *  1.0762539 *  1.0762594 *
   3 H       2.3721807 *  1.0762544 *  0.0000000    1.7720009 *  1.7719306 *
   4 H       2.3721717 *  1.0762539 *  1.7720009 *  0.0000000    1.7719435 *
   5 H       2.3721854 *  1.0762594 *  1.7719306 *  1.7719435 *  0.0000000  

  * ... LESS THAN  3.000


     ATOMIC BASIS SET
     ----------------
 THE CONTRACTED PRIMITIVE FUNCTIONS HAVE BEEN UNNORMALIZED
 THE CONTRACTED BASIS FUNCTIONS ARE NOW NORMALIZED TO UNITY

  SHELL TYPE  PRIMITIVE        EXPONENT          CONTRACTION COEFFICIENT(S)

 CL        

      1   S       1          1376.4000000    0.064582702276
      1   S       2           207.8570000    0.380363013403
      1   S       3            45.1554000    0.678190023897

      2   L       4            60.8014000   -0.098763952754    0.108598058511
      2   L       5            13.9765000    0.051133827313    0.458682247132
      2   L       6             3.8871000    0.991337529515    0.601962324329

      3   L       7             1.3529900   -0.222401484148    0.219215797213
      3   L       8             0.5269550    1.182522574248    0.822320239308

      4   L       9             0.1667140    1.000000000000    1.000000000000

      5   D      10             0.7500000    1.000000000000

 C         

      6   S      11           172.2560000    0.061766907377
      6   S      12            25.9109000    0.358794042852
      6   S      13             5.5333500    0.700713083689

      7   L      14             3.6649800   -0.395895162119    0.236459946619
      7   L      15             0.7705450    1.215834355681    0.860618805716

      8   L      16             0.1958570    1.000000000000    1.000000000000

 H         

      9   S      17             5.4471780    0.156284978695
      9   S      18             0.8245472    0.904690876670

     10   S      19             0.1831916    1.000000000000

 H         

     11   S      20             5.4471780    0.156284978695
     11   S      21             0.8245472    0.904690876670

     12   S      22             0.1831916    1.000000000000

 H         

     13   S      23             5.4471780    0.156284978695
     13   S      24             0.8245472    0.904690876670

     14   S      25             0.1831916    1.000000000000

 TOTAL NUMBER OF BASIS SET SHELLS             =   14
 NUMBER OF CARTESIAN GAUSSIAN BASIS FUNCTIONS =   34
 NUMBER OF ELECTRONS                          =   26
 CHARGE OF MOLECULE                           =    0
 SPIN MULTIPLICITY                            =    1
 NUMBER OF OCCUPIED ORBITALS (ALPHA)          =   13
 NUMBER OF OCCUPIED ORBITALS (BETA )          =   13
 TOTAL NUMBER OF ATOMS                        =    5
 THE NUCLEAR REPULSION ENERGY IS       51.0101828614

     $CONTRL OPTIONS
     ---------------
 SCFTYP=RHF          RUNTYP=ENERGY       EXETYP=RUN     
 MPLEVL=       0     CITYP =NONE         CCTYP =NONE         VBTYP =NONE    
 DFTTYP=NONE         TDDFT =NONE    
 MULT  =       1     ICHARG=       0     NZVAR =       0     COORD =UNIQUE  
 PP    =NONE         RELWFN=NONE         LOCAL =NONE         NUMGRD=       F
 ISPHER=      -1     NOSYM =       0     MAXIT =      30     UNITS =ANGS    
 PLTORB=       F     MOLPLT=       F     AIMPAC=       F     FRIEND=        
 NPRINT=       7     IREST =       0     GEOM  =INPUT   
 NORMF =       0     NORMP =       0     ITOL  =      20     ICUT  =       9
 INTTYP=BEST         GRDTYP=BEST         QMTTOL= 1.0E-06

     $SYSTEM OPTIONS
     ---------------
  REPLICATED MEMORY=     1000000 WORDS (ON EVERY NODE).
 DISTRIBUTED MEMDDI=           0 MILLION WORDS IN AGGREGATE,
 MEMDDI DISTRIBUTED OVER   1 PROCESSORS IS           0 WORDS/PROCESSOR.
 TOTAL MEMORY REQUESTED ON EACH PROCESSOR=     1000000 WORDS.
 TIMLIM=      525600.00 MINUTES, OR     365.0 DAYS.
 PARALL= F  BALTYP=  DLB     KDIAG=    0  COREFL= F
 MXSEQ2=     300 MXSEQ3=     150

          ----------------
          PROPERTIES INPUT
          ----------------

     MOMENTS            FIELD           POTENTIAL          DENSITY
 IEMOM =       1   IEFLD =       0   IEPOT =       0   IEDEN =       0
 WHERE =COMASS     WHERE =NUCLEI     WHERE =NUCLEI     WHERE =NUCLEI  
 OUTPUT=BOTH       OUTPUT=BOTH       OUTPUT=BOTH       OUTPUT=BOTH    
 IEMINT=       0   IEFINT=       0                     IEDINT=       0
                                                       MORB  =       0
          EXTRAPOLATION IN EFFECT
          SOSCF IN EFFECT
 ORBITAL PRINTING OPTION: NPREO=     1    34     2     1

     -------------------------------
     INTEGRAL TRANSFORMATION OPTIONS
     -------------------------------
     NWORD  =            0
     CUTOFF = 1.0E-09     MPTRAN =       0
     DIRTRF =       F     AOINTS =DUP     

          ----------------------
          INTEGRAL INPUT OPTIONS
          ----------------------
 NOPK  =       1 NORDER=       0 SCHWRZ=       F

     ------------------------------------------
     THE POINT GROUP IS C1 , NAXIS= 0, ORDER= 1
     ------------------------------------------

     DIMENSIONS OF THE SYMMETRY SUBSPACES ARE
 A   =   34

 ..... DONE SETTING UP THE RUN .....
 STEP CPU TIME =     0.00 TOTAL CPU TIME =        0.0 (    0.0 MIN)
 TOTAL WALL CLOCK TIME=        0.0 SECONDS, CPU UTILIZATION IS   0.00%

          ********************
          1 ELECTRON INTEGRALS
          ********************
 ...... END OF ONE-ELECTRON INTEGRALS ......
 STEP CPU TIME =     0.00 TOTAL CPU TIME =        0.0 (    0.0 MIN)
 TOTAL WALL CLOCK TIME=        0.0 SECONDS, CPU UTILIZATION IS   0.00%

          -------------
          GUESS OPTIONS
          -------------
          GUESS =HUCKEL            NORB  =       0          NORDER=       0
          MIX   =       F          PRTMO =       F          PUNMO =       F
          TOLZ  = 1.0E-08          TOLE  = 1.0E-05
          SYMDEN=       F          PURIFY=       F

 INITIAL GUESS ORBITALS GENERATED BY HUCKEL   ROUTINE.
 HUCKEL GUESS REQUIRES     13297 WORDS.

 SYMMETRIES FOR INITIAL GUESS ORBITALS FOLLOW.   BOTH SET(S).
    13 ORBITALS ARE OCCUPIED (    6 CORE ORBITALS).
     7=A        8=A        9=A       10=A       11=A       12=A       13=A   
    14=A       15=A       16=A       17=A       18=A       19=A       20=A   
    21=A       22=A       23=A   
 ...... END OF INITIAL ORBITAL SELECTION ......
 STEP CPU TIME =     0.00 TOTAL CPU TIME =        0.0 (    0.0 MIN)
 TOTAL WALL CLOCK TIME=        0.0 SECONDS, CPU UTILIZATION IS   0.00%

                    ----------------------
                    AO INTEGRAL TECHNOLOGY
                    ----------------------
     S,P,L SHELL ROTATED AXIS INTEGRALS, REPROGRAMMED BY
        KAZUYA ISHIMURA (IMS) AND JOSE SIERRA (SYNSTAR).
     S,P,D,L SHELL ROTATED AXIS INTEGRALS PROGRAMMED BY
        KAZUYA ISHIMURA (INSTITUTE FOR MOLECULAR SCIENCE).
     S,P,D,F,G SHELL TO TOTAL QUARTET ANGULAR MOMENTUM SUM 5,
        ERIC PROGRAM BY GRAHAM FLETCHER (ELORET AND NASA ADVANCED
        SUPERCOMPUTING DIVISION, AMES RESEARCH CENTER).
     S,P,D,F,G,L SHELL GENERAL RYS QUADRATURE PROGRAMMED BY
        MICHEL DUPUIS (PACIFIC NORTHWEST NATIONAL LABORATORY).

          --------------------
          2 ELECTRON INTEGRALS
          --------------------

 THE -PK- OPTION IS OFF, THE INTEGRALS ARE NOT IN SUPERMATRIX FORM.
 STORING   15000 INTEGRALS/RECORD ON DISK, USING 12 BYTES/INTEGRAL.
 TWO ELECTRON INTEGRAL EVALUATION REQUIRES   90501 WORDS OF MEMORY.
 II,JST,KST,LST =  1  1  1  1 NREC =         1 INTLOC =    1
 II,JST,KST,LST =  2  1  1  1 NREC =         1 INTLOC =    2
 II,JST,KST,LST =  3  1  1  1 NREC =         1 INTLOC =   34
 II,JST,KST,LST =  4  1  1  1 NREC =         1 INTLOC =  214
 II,JST,KST,LST =  5  1  1  1 NREC =         1 INTLOC =  776
 II,JST,KST,LST =  6  1  1  1 NREC =         1 INTLOC = 2864
 II,JST,KST,LST =  7  1  1  1 NREC =         1 INTLOC = 5794
 II,JST,KST,LST =  8  1  1  1 NREC =         2 INTLOC =13076
 II,JST,KST,LST =  9  1  1  1 NREC =         5 INTLOC = 4228
 II,JST,KST,LST = 10  1  1  1 NREC =         6 INTLOC =  303
 II,JST,KST,LST = 11  1  1  1 NREC =         6 INTLOC =13560
 II,JST,KST,LST = 12  1  1  1 NREC =         7 INTLOC =12501
 II,JST,KST,LST = 13  1  1  1 NREC =         8 INTLOC =13658
 II,JST,KST,LST = 14  1  1  1 NREC =        10 INTLOC =  444
 TOTAL NUMBER OF NONZERO TWO-ELECTRON INTEGRALS =              154810
         11 INTEGRAL RECORDS WERE STORED ON DISK FILE  8.
  ...... END OF TWO-ELECTRON INTEGRALS .....
 STEP CPU TIME =     0.05 TOTAL CPU TIME =        0.0 (    0.0 MIN)
 TOTAL WALL CLOCK TIME=        0.1 SECONDS, CPU UTILIZATION IS  83.33%

          --------------------------
                 RHF SCF CALCULATION
          --------------------------

     NUCLEAR ENERGY =        51.0101828614
     MAXIT =   30     NPUNCH=    2
     EXTRAP=T  DAMP=F  SHIFT=F  RSTRCT=F  DIIS=F  DEM=F  SOSCF=T
     DENSITY MATRIX CONV=  1.00E-05
     SOSCF WILL OPTIMIZE     273 ORBITAL ROTATIONS, SOGTOL=   0.250
     MEMORY REQUIRED FOR RHF ITERS=     39660 WORDS.

 ITER EX DEM     TOTAL ENERGY        E CHANGE  DENSITY CHANGE     ORB. GRAD
   1  0  0     -496.4441254268  -496.4441254268   0.482565901   0.000000000
          ---------------START SECOND ORDER SCF---------------
   2  1  0     -496.7817654274    -0.3376400007   0.071888762   0.032402313
   3  2  0     -496.7929144531    -0.0111490256   0.046987599   0.014104001
   4  3  0     -496.7949431146    -0.0020286616   0.009741496   0.002322809
   5  4  0     -496.7949936594    -0.0000505448   0.001205664   0.000535720
   6  5  0     -496.7949963268    -0.0000026674   0.000506824   0.000209528
   7  6  0     -496.7949966053    -0.0000002785   0.000129244   0.000034423
   8  7  0     -496.7949966198    -0.0000000144   0.000017599   0.000008097
   9  8  0     -496.7949966204    -0.0000000006   0.000004311   0.000001467
  10  9  0     -496.7949966204    -0.0000000000   0.000000787   0.000000240

          -----------------
          DENSITY CONVERGED
          -----------------
     TIME TO FORM FOCK OPERATORS=       0.0 SECONDS (       0.0 SEC/ITER)
     TIME TO SOLVE SCF EQUATIONS=       0.0 SECONDS (       0.0 SEC/ITER)

 FINAL RHF ENERGY IS     -496.7949966204 AFTER  10 ITERATIONS

          ------------
          EIGENVECTORS
          ------------

                      1          2          3          4          5
                 -104.2144   -11.2342   -10.5187    -7.9846    -7.9807
                     A          A          A          A          A   
    1  CL 1  S    0.984458  -0.000017  -0.302043   0.001651   0.000000
    2  CL 1  S    0.075859  -0.000338   0.928440  -0.005319  -0.000000
    3  CL 1  X    0.000008   0.000098  -0.001843  -0.374462   0.899705
    4  CL 1  Y    0.000001   0.000009  -0.000166  -0.033771   0.013049
    5  CL 1  Z   -0.000019  -0.000236   0.004421   0.898431   0.375484
    6  CL 1  S   -0.089262  -0.001342   0.305817   0.000999   0.000000
    7  CL 1  X   -0.000152  -0.000623  -0.000570  -0.030977   0.071009
    8  CL 1  Y   -0.000014  -0.000056  -0.000051  -0.002794   0.001030
    9  CL 1  Z    0.000365   0.001495   0.001368   0.074321   0.029635
   10  CL 1  S   -0.008560   0.013971  -0.014433  -0.004837  -0.000000
   11  CL 1  X    0.000767  -0.003617   0.000780   0.010346  -0.021188
   12  CL 1  Y    0.000069  -0.000326   0.000070   0.000933  -0.000307
   13  CL 1  Z   -0.001839   0.008678  -0.001872  -0.024823  -0.008842
   14  CL 1 XX    0.035905  -0.000860  -0.085785   0.000995  -0.000101
   15  CL 1 YY    0.035979  -0.001198  -0.085800   0.000924  -0.000002
   16  CL 1 ZZ    0.035549   0.000760  -0.085711   0.001334   0.000103
   17  CL 1 XY   -0.000008   0.000035   0.000002   0.000007   0.000007
   18  CL 1 XZ    0.000207  -0.000944  -0.000043  -0.000198   0.000118
   19  CL 1 YZ    0.000019  -0.000085  -0.000004  -0.000018   0.000005
   20  C  2  S    0.000019   0.987402  -0.000184   0.000622  -0.000000
   21  C  2  S   -0.000060   0.100626   0.000060   0.003050  -0.000000
   22  C  2  X   -0.000086   0.000448  -0.000083  -0.000392  -0.000077
   23  C  2  Y   -0.000008   0.000041  -0.000007  -0.000035  -0.000001
   24  C  2  Z    0.000206  -0.001076   0.000199   0.000940  -0.000032
   25  C  2  S    0.001005  -0.074628   0.000423  -0.003913   0.000000
   26  C  2  X    0.000684  -0.001166   0.000607   0.001017   0.001503
   27  C  2  Y    0.000062  -0.000106   0.000055   0.000091   0.000022
   28  C  2  Z   -0.001640   0.002798  -0.001457  -0.002440   0.000627
   29  H  3  S   -0.000202  -0.000248  -0.000114   0.000164  -0.000545
   30  H  3  S    0.000749   0.014144   0.000868   0.003932   0.001435
   31  H  4  S   -0.000202  -0.000248  -0.000114   0.000164   0.000588
   32  H  4  S    0.000749   0.014144   0.000868   0.003932  -0.001547
   33  H  5  S   -0.000202  -0.000248  -0.000114   0.000164  -0.000043
   34  H  5  S    0.000749   0.014145   0.000868   0.003932   0.000113

                      6          7          8          9         10
                   -7.9807    -1.1253    -0.9227    -0.6246    -0.6246
                     A          A          A          A          A   
    1  CL 1  S    0.000000   0.063916  -0.044355   0.000000   0.000001
    2  CL 1  S   -0.000000  -0.363658   0.258224  -0.000002  -0.000004
    3  CL 1  X   -0.025057   0.016474   0.015901  -0.075765   0.003378
    4  CL 1  Y    0.974328   0.001486   0.001434  -0.002474  -0.082076
    5  CL 1  Z    0.026181  -0.039526  -0.038150  -0.031668  -0.001671
    6  CL 1  S    0.000000   0.430430  -0.304322   0.000003   0.000006
    7  CL 1  X   -0.001978  -0.032093  -0.032027   0.162640  -0.007252
    8  CL 1  Y    0.076898  -0.002894  -0.002888   0.005311   0.176187
    9  CL 1  Z    0.002066   0.076999   0.076840   0.067981   0.003587
   10  CL 1  S   -0.000000   0.336326  -0.357536   0.000004   0.000008
   11  CL 1  X    0.000590  -0.005922  -0.000450   0.101903  -0.004544
   12  CL 1  Y   -0.022945  -0.000534  -0.000041   0.003328   0.110396
   13  CL 1  Z   -0.000617   0.014208   0.001079   0.042595   0.002248
   14  CL 1 XX    0.000014   0.022258  -0.016311  -0.013300   0.000163
   15  CL 1 YY   -0.000023   0.016451  -0.017983   0.000055  -0.000793
   16  CL 1 ZZ    0.000009   0.050103  -0.008294   0.013245   0.000630
   17  CL 1 XY   -0.000066   0.000610   0.000176  -0.001472  -0.008153
   18  CL 1 XZ   -0.000000  -0.016218  -0.004670   0.015084  -0.001188
   19  CL 1 YZ    0.000152  -0.001463  -0.000421   0.000092   0.019901
   20  C  2  S   -0.000000  -0.121791  -0.171318   0.000001   0.000003
   21  C  2  S    0.000000   0.115623   0.167989  -0.000001  -0.000004
   22  C  2  X    0.000002   0.021924  -0.036871   0.345164  -0.015403
   23  C  2  Y   -0.000084   0.001979  -0.003320   0.011271   0.373881
   24  C  2  Z   -0.000002  -0.052602   0.088466   0.144292   0.007640
   25  C  2  S   -0.000000   0.351390   0.545970  -0.000002  -0.000008
   26  C  2  X   -0.000042   0.012129  -0.014492   0.287863  -0.012846
   27  C  2  Y    0.001628   0.001098  -0.001300   0.009400   0.311813
   28  C  2  Z    0.000044  -0.029099   0.034773   0.120338   0.006373
   29  H  3  S    0.000364   0.055300   0.123723   0.197220  -0.136583
   30  H  3  S   -0.000958  -0.010545   0.030413   0.147232  -0.101973
   31  H  4  S    0.000290   0.055301   0.123723  -0.216896  -0.102500
   32  H  4  S   -0.000763  -0.010545   0.030413  -0.161922  -0.076527
   33  H  5  S   -0.000654   0.055300   0.123724   0.019679   0.239088
   34  H  5  S    0.001722  -0.010547   0.030412   0.014691   0.178502

                     11         12         13         14         15
                   -0.5398    -0.4352    -0.4351     0.1971     0.2834
                     A          A          A          A          A   
    1  CL 1  S   -0.014155   0.000000   0.000000  -0.019808   0.012803
    2  CL 1  S    0.088917  -0.000000  -0.000000   0.125809  -0.071609
    3  CL 1  X    0.086036  -0.248591   0.005451  -0.057600   0.018532
    4  CL 1  Y    0.007756  -0.002013  -0.269184  -0.005194   0.001670
    5  CL 1  Z   -0.206427  -0.103686  -0.007845   0.138197  -0.044463
    6  CL 1  S   -0.118128   0.000000  -0.000000  -0.096313   0.169244
    7  CL 1  X   -0.185164   0.543920  -0.011928   0.119647  -0.044036
    8  CL 1  Y   -0.016692   0.004404   0.588977   0.010790  -0.003969
    9  CL 1  Z    0.444267   0.226867   0.017164  -0.287064   0.105655
   10  CL 1  S   -0.210136   0.000000   0.000001  -0.715514   0.076638
   11  CL 1  X   -0.112987   0.480024  -0.010527   0.380332  -0.088150
   12  CL 1  Y   -0.010184   0.003887   0.519790   0.034298  -0.007948
   13  CL 1  Z    0.271093   0.200216   0.015148  -0.912519   0.211498
   14  CL 1 XX   -0.008873  -0.002926   0.000766  -0.027547   0.022748
   15  CL 1 YY   -0.022557  -0.000137  -0.001112  -0.049386   0.024035
   16  CL 1 ZZ    0.056752   0.003062   0.000345   0.077183   0.016594
   17  CL 1 XY    0.001436   0.000702  -0.002016   0.002293  -0.000135
   18  CL 1 XZ   -0.038223   0.003535   0.000185  -0.061001   0.003584
   19  CL 1 YZ   -0.003447   0.000326   0.004435  -0.005501   0.000322
   20  C  2  S   -0.004762  -0.000000  -0.000001  -0.132625  -0.124074
   21  C  2  S   -0.009892   0.000000   0.000001   0.063056   0.021322
   22  C  2  X    0.113339  -0.121676   0.002668   0.108027  -0.083504
   23  C  2  Y    0.010229  -0.000985  -0.131766   0.009745  -0.007536
   24  C  2  Z   -0.271917  -0.050750  -0.003839  -0.259178   0.200336
   25  C  2  S    0.068698   0.000001   0.000003   1.395971   1.951232
   26  C  2  X    0.104612  -0.083718   0.001835   0.317363  -0.323577
   27  C  2  Y    0.009443  -0.000678  -0.090666   0.028639  -0.029197
   28  C  2  Z   -0.250980  -0.034918  -0.002640  -0.761412   0.776290
   29  H  3  S   -0.069621  -0.092928   0.061294   0.002651  -0.017377
   30  H  3  S   -0.075154  -0.113394   0.074795  -0.275662  -1.076277
   31  H  4  S   -0.069624   0.099543   0.049836   0.002652  -0.017381
   32  H  4  S   -0.075158   0.121466   0.060812  -0.275653  -1.076319
   33  H  5  S   -0.069613  -0.006615  -0.111130   0.002651  -0.017369
   34  H  5  S   -0.075148  -0.008072  -0.135607  -0.275671  -1.076213

                     16         17         18         19         20
                    0.3150     0.3150     0.7009     0.8081     0.8081
                     A          A          A          A          A   
    1  CL 1  S   -0.000001   0.000000  -0.054313  -0.000000   0.000000
    2  CL 1  S    0.000004  -0.000002   0.260084   0.000000  -0.000001
    3  CL 1  X    0.000355   0.009407   0.036850   0.035788  -0.301426
    4  CL 1  Y   -0.010192   0.000238   0.003322  -0.326852  -0.034029
    5  CL 1  Z   -0.000232   0.003928  -0.088412   0.002641  -0.126922
    6  CL 1  S   -0.000011   0.000003  -1.415293  -0.000003   0.000011
    7  CL 1  X   -0.000414  -0.010983  -0.112718  -0.124937   1.052279
    8  CL 1  Y    0.011904  -0.000278  -0.010161   1.141040   0.118796
    9  CL 1  Z    0.000267  -0.004585   0.270439  -0.009219   0.443087
   10  CL 1  S   -0.000003   0.000008   2.033309   0.000014  -0.000022
   11  CL 1  X   -0.006785  -0.179394  -0.010967   0.115345  -0.971531
   12  CL 1  Y    0.194290  -0.004544  -0.000991  -1.053475  -0.109680
   13  CL 1  Z    0.004460  -0.074929   0.026314   0.008522  -0.409098
   14  CL 1 XX   -0.018080  -0.035022  -0.156735  -0.005483   0.026201
   15  CL 1 YY    0.023095  -0.003607  -0.123214   0.005300   0.000983
   16  CL 1 ZZ   -0.005018   0.038630  -0.317480   0.000184  -0.027178
   17  CL 1 XY    0.026862   0.018270  -0.003519   0.017300   0.000260
   18  CL 1 XZ   -0.005378   0.044952   0.093627   0.003182  -0.030920
   19  CL 1 YZ   -0.054001   0.009006   0.008443  -0.039775  -0.004764
   20  C  2  S    0.000003  -0.000002  -0.006334  -0.000000   0.000001
   21  C  2  S    0.000002  -0.000000   0.004019  -0.000001  -0.000005
   22  C  2  X    0.009812   0.259120  -0.056907  -0.022649   0.190765
   23  C  2  Y   -0.280653   0.006563  -0.005122   0.206904   0.021539
   24  C  2  Z   -0.006471   0.108254   0.136537  -0.001680   0.080313
   25  C  2  S   -0.000067   0.000032  -0.005645  -0.000017   0.000011
   26  C  2  X    0.050813   1.342096  -0.118789   0.030989  -0.261034
   27  C  2  Y   -1.453542   0.033994  -0.010717  -0.283074  -0.029469
   28  C  2  Z   -0.033501   0.560690   0.285000   0.002301  -0.109909
   29  H  3  S   -0.046167  -0.067614  -0.046811  -0.158319   0.196017
   30  H  3  S   -0.973616  -1.426454  -0.166254  -0.001668   0.002128
   31  H  4  S   -0.035489   0.073779  -0.046814  -0.090631  -0.235099
   32  H  4  S   -0.748394   1.556448  -0.166255  -0.000948  -0.002533
   33  H  5  S    0.081646  -0.006163  -0.046800   0.248930   0.039074
   34  H  5  S    1.722149  -0.130060  -0.166265   0.002632   0.000426

                     21         22         23         24         25
                    0.8184     0.8817     0.8817     0.9389     1.1541
                     A          A          A          A          A   
    1  CL 1  S   -0.009519   0.000000   0.000000  -0.010101   0.000000
    2  CL 1  S    0.035365  -0.000003  -0.000001   0.059764  -0.000000
    3  CL 1  X   -0.125163   0.002907  -0.098678  -0.027133  -0.000002
    4  CL 1  Y   -0.011280  -0.106888  -0.001598  -0.002449  -0.000471
    5  CL 1  Z    0.300268  -0.002812  -0.041194   0.065097  -0.000019
    6  CL 1  S   -0.353513   0.000012   0.000008  -0.385833   0.000000
    7  CL 1  X    0.451637  -0.011106   0.377121   0.074504   0.000008
    8  CL 1  Y    0.040702   0.408489   0.006108   0.006729   0.002304
    9  CL 1  Z   -1.083488   0.010738   0.157430  -0.178741   0.000093
   10  CL 1  S    0.731578  -0.000050  -0.000019   1.042940   0.000003
   11  CL 1  X   -0.565300   0.018001  -0.611046  -0.287307   0.000050
   12  CL 1  Y   -0.050952  -0.661810  -0.009899  -0.025950   0.012190
   13  CL 1  Z    1.356197  -0.017421  -0.255080   0.689292   0.000479
   14  CL 1 XX    0.020496   0.012727  -0.248930  -0.061359  -0.719835
   15  CL 1 YY    0.082102  -0.030647  -0.001447  -0.120537   0.835267
   16  CL 1 ZZ   -0.274916   0.017909   0.250376   0.222457  -0.115432
   17  CL 1 XY   -0.006467  -0.156789  -0.008626   0.006189   0.077694
   18  CL 1 XZ    0.172067  -0.011710   0.286338  -0.165290  -0.343138
   19  CL 1 YZ    0.015516   0.373474   0.002929  -0.014849   0.161662
   20  C  2  S   -0.024521   0.000002   0.000001  -0.030988   0.000001
   21  C  2  S    0.158455   0.000010  -0.000000  -0.000201  -0.000006
   22  C  2  X   -0.023469   0.017846  -0.607573   0.325617   0.000692
   23  C  2  Y   -0.002111  -0.657970  -0.009848   0.029302   0.169679
   24  C  2  Z    0.056312  -0.017211  -0.253585  -0.781272   0.006659
   25  C  2  S   -0.465988   0.000004   0.000007   0.045217   0.000001
   26  C  2  X   -0.069439  -0.030836   1.049769  -0.622289  -0.000714
   27  C  2  Y   -0.006270   1.136756   0.017015  -0.055980  -0.175247
   28  C  2  Z    0.166594   0.029745   0.438150   1.493113  -0.006880
   29  H  3  S    0.041803   0.268096  -0.399881  -0.327833   0.066528
   30  H  3  S   -0.160959  -0.008296   0.012268  -0.140861  -0.089351
   31  H  4  S    0.041797   0.212317   0.432104  -0.327819   0.059304
   32  H  4  S   -0.160970  -0.006570  -0.013259  -0.140846  -0.079649
   33  H  5  S    0.041799  -0.480306  -0.032198  -0.327889  -0.125813
   34  H  5  S   -0.160956   0.014830   0.000985  -0.140904   0.168992

                     26         27         28         29         30
                    1.1541     1.2724     1.2724     1.2770     1.3226
                     A          A          A          A          A   
    1  CL 1  S   -0.000000   0.000001   0.000000  -0.001057  -0.000001
    2  CL 1  S    0.000000  -0.000003  -0.000000   0.005727   0.000003
    3  CL 1  X    0.000434   0.000218  -0.029486  -0.020609   0.001455
    4  CL 1  Y   -0.000009  -0.031932   0.000254  -0.001895  -0.033130
    5  CL 1  Z    0.000181  -0.001180  -0.012290   0.049432  -0.000632
    6  CL 1  S   -0.000000  -0.000054  -0.000008   0.015999  -0.000021
    7  CL 1  X   -0.002125  -0.000903   0.122544   0.084472  -0.005880
    8  CL 1  Y    0.000044   0.132703  -0.001056   0.007770   0.133900
    9  CL 1  Z   -0.000885   0.004901   0.051077  -0.202614   0.002553
   10  CL 1  S   -0.000000   0.000415   0.000062  -0.267124   0.000026
   11  CL 1  X   -0.011264   0.002020  -0.311062  -0.009502   0.006100
   12  CL 1  Y    0.000229  -0.336767   0.002674  -0.001269  -0.139023
   13  CL 1  Z   -0.004685  -0.011792  -0.129543   0.022644  -0.002641
   14  CL 1 XX    0.130963  -0.095034   0.544478  -0.149312   0.103300
   15  CL 1 YY   -0.116045   0.161479   0.015562  -0.258665  -0.115243
   16  CL 1 ZZ   -0.014918  -0.066407  -0.560034   0.376281   0.011937
   17  CL 1 XY    0.900202   0.362329  -0.088149   0.011935   0.054017
   18  CL 1 XZ    0.010918  -0.025941  -0.645345  -0.306359   0.061430
   19  CL 1 YZ    0.371916  -0.820797  -0.028292  -0.028626  -0.203468
   20  C  2  S   -0.000000   0.000060   0.000008  -0.047799  -0.000003
   21  C  2  S    0.000002  -0.000032  -0.000003   0.041910   0.000016
   22  C  2  X   -0.156733   0.003503  -0.483125  -0.282330  -0.032457
   23  C  2  Y    0.003198  -0.522901   0.004148  -0.026191   0.737161
   24  C  2  Z   -0.065204  -0.019217  -0.201352   0.677068   0.014254
   25  C  2  S   -0.000001   0.000203   0.000028  -0.184110  -0.000053
   26  C  2  X    0.161879  -0.007803   1.149364   0.234620   0.031572
   27  C  2  Y   -0.003303   1.244067  -0.009869   0.022807  -0.717392
   28  C  2  Z    0.067346   0.044424   0.478818  -0.562252  -0.013832
   29  H  3  S    0.106854   0.052579  -0.081258  -0.508207   0.530494
   30  H  3  S   -0.143522   0.328239  -0.515946   0.416435  -0.715887
   31  H  4  S   -0.111027   0.045198   0.085670  -0.508227   0.393826
   32  H  4  S    0.149123   0.281621   0.542747   0.416617  -0.531463
   33  H  5  S    0.004168  -0.095866  -0.004154  -0.508258  -0.924471
   34  H  5  S   -0.005599  -0.611489  -0.027030   0.415133   1.247459

                     31         32         33         34
                    1.3226     1.4770     2.0485     4.3365
                     A          A          A          A   
    1  CL 1  S    0.000000  -0.013071   0.002589   0.121001
    2  CL 1  S   -0.000000   0.060555  -0.009259  -1.568318
    3  CL 1  X    0.030589  -0.026391  -0.012632  -0.002932
    4  CL 1  Y    0.001099  -0.002379  -0.001140  -0.000264
    5  CL 1  Z    0.012789   0.063318   0.030305   0.007035
    6  CL 1  S    0.000003  -0.595666   0.404349   4.800923
    7  CL 1  X   -0.123633   0.120780   0.040663   0.016858
    8  CL 1  Y   -0.004444   0.010887   0.003671   0.001520
    9  CL 1  Z   -0.051690  -0.289785  -0.097557  -0.040445
   10  CL 1  S   -0.000001   1.196196  -1.283257   1.039670
   11  CL 1  X    0.128407  -0.359661   0.333842  -0.084368
   12  CL 1  Y    0.004616  -0.032424   0.030089  -0.007609
   13  CL 1  Z    0.053687   0.862922  -0.800987   0.202419
   14  CL 1 XX   -0.143058  -0.257343   0.099730  -2.339317
   15  CL 1 YY    0.023989  -0.424691   0.187956  -2.350851
   16  CL 1 ZZ    0.119071   0.545126  -0.323379  -2.284004
   17  CL 1 XY   -0.145380   0.017563  -0.009256   0.001211
   18  CL 1 XZ    0.129834  -0.467403   0.246438  -0.032217
   19  CL 1 YZ   -0.052211  -0.042137   0.022208  -0.002906
   20  C  2  S    0.000002   0.111865  -0.058005  -0.004229
   21  C  2  S   -0.000004  -0.498402  -2.007883   0.010556
   22  C  2  X   -0.680423   0.002923  -0.025682   0.016669
   23  C  2  Y   -0.024454   0.000258  -0.002330   0.001502
   24  C  2  Z   -0.284545  -0.007010   0.061610  -0.039993
   25  C  2  S    0.000010   0.088967   4.144208  -0.099290
   26  C  2  X    0.662022  -0.268588   0.173680  -0.078535
   27  C  2  Y    0.023791  -0.024243   0.015755  -0.007078
   28  C  2  Z    0.276839   0.644398  -0.416661   0.188426
   29  H  3  S    0.761168   0.455806  -0.244744   0.021928
   30  H  3  S   -1.026959  -0.513012  -0.656638  -0.088171
   31  H  4  S   -0.840038   0.455809  -0.244741   0.021928
   32  H  4  S    1.133395  -0.513020  -0.656631  -0.088172
   33  H  5  S    0.078928   0.455835  -0.244781   0.021927
   34  H  5  S   -0.106475  -0.513008  -0.656668  -0.088172
 ...... END OF RHF CALCULATION ......
 STEP CPU TIME =     0.04 TOTAL CPU TIME =        0.1 (    0.0 MIN)
 TOTAL WALL CLOCK TIME=        0.1 SECONDS, CPU UTILIZATION IS  90.00%

     ----------------------------------------------------------------
     PROPERTY VALUES FOR THE RHF   SELF-CONSISTENT FIELD WAVEFUNCTION
     ----------------------------------------------------------------

          -----------------
          ENERGY COMPONENTS
          -----------------

         WAVEFUNCTION NORMALIZATION =       1.0000000000

                ONE ELECTRON ENERGY =    -786.3694226117
                TWO ELECTRON ENERGY =     238.5642431299
           NUCLEAR REPULSION ENERGY =      51.0101828614
                                      ------------------
                       TOTAL ENERGY =    -496.7949966204

 ELECTRON-ELECTRON POTENTIAL ENERGY =     238.5642431299
  NUCLEUS-ELECTRON POTENTIAL ENERGY =   -1279.6116184088
   NUCLEUS-NUCLEUS POTENTIAL ENERGY =      51.0101828614
                                      ------------------
             TOTAL POTENTIAL ENERGY =    -990.0371924175
               TOTAL KINETIC ENERGY =     493.2421957971
                 VIRIAL RATIO (V/T) =       2.0072029540

          ---------------------------------------
          MULLIKEN AND LOWDIN POPULATION ANALYSES
          ---------------------------------------

     ATOMIC MULLIKEN POPULATION IN EACH MOLECULAR ORBITAL

                      1          2          3          4          5

                  2.000000   2.000000   2.000000   2.000000   2.000000

    1             1.999935   0.002425   1.999561   1.999787   1.999941
    2             0.000060   1.988987   0.000385   0.000070   0.000044
    3             0.000002   0.002863   0.000018   0.000048   0.000007
    4             0.000002   0.002863   0.000018   0.000048   0.000008
    5             0.000002   0.002863   0.000018   0.000048   0.000000

                      6          7          8          9         10

                  2.000000   2.000000   2.000000   2.000000   2.000000

    1             1.999941   1.333468   0.603826   0.194337   0.194373
    2             0.000044   0.626981   1.023636   1.096220   1.096198
    3             0.000003   0.013184   0.124179   0.319648   0.153309
    4             0.000002   0.013184   0.124178   0.386612   0.086342
    5             0.000010   0.013183   0.124180   0.003182   0.469777

                     11         12         13

                  2.000000   2.000000   2.000000

    1             1.193725   1.792320   1.792285
    2             0.676768   0.074767   0.074782
    3             0.043170   0.061748   0.026865
    4             0.043175   0.070852   0.017759
    5             0.043162   0.000313   0.088309

               ----- POPULATIONS IN EACH AO -----
                             MULLIKEN      LOWDIN
              1  CL 1  S      1.99475     1.99709
              2  CL 1  S      1.86593     1.87945
              3  CL 1  X      1.97135     1.95300
              4  CL 1  Y      1.97281     1.95592
              5  CL 1  Z      1.96435     1.93900
              6  CL 1  S      1.18258     0.62205
              7  CL 1  X      1.05912     1.03219
              8  CL 1  Y      1.10409     1.08082
              9  CL 1  Z      0.84346     0.79899
             10  CL 1  S      0.85414     0.59243
             11  CL 1  X      0.83275     0.89108
             12  CL 1  Y      0.90544     0.94333
             13  CL 1  Z      0.48421     0.64015
             14  CL 1 XX      0.01164     0.26445
             15  CL 1 YY      0.00946     0.26685
             16  CL 1 ZZ      0.03693     0.26924
             17  CL 1 XY      0.00050     0.00058
             18  CL 1 XZ      0.00956     0.01114
             19  CL 1 YZ      0.00287     0.00333
             20  C  2  S      1.98805     1.97666
             21  C  2  S      0.36128     0.42790
             22  C  2  X      0.56387     0.52871
             23  C  2  Y      0.59327     0.55578
             24  C  2  Z      0.42285     0.39843
             25  C  2  S      1.17567     0.60483
             26  C  2  X      0.55111     0.59212
             27  C  2  Y      0.57730     0.60781
             28  C  2  Z      0.42554     0.51378
             29  H  3  S      0.47489     0.47170
             30  H  3  S      0.27015     0.41261
             31  H  4  S      0.47489     0.47172
             32  H  4  S      0.27015     0.41257
             33  H  5  S      0.47489     0.47174
             34  H  5  S      0.27016     0.41258

          ----- MULLIKEN ATOMIC OVERLAP POPULATIONS -----
          (OFF-DIAGONAL ELEMENTS NEED TO BE MULTIPLIED BY 2)

             1           2           3           4           5

    1   17.0739777
    2    0.1651182   5.4056221
    3   -0.0443902   0.3627350   0.4729724
    4   -0.0443915   0.3627357  -0.0231326   0.4729707
    5   -0.0443897   0.3627319  -0.0231411  -0.0231395   0.4729849

          TOTAL MULLIKEN AND LOWDIN ATOMIC POPULATIONS
       ATOM         MULL.POP.    CHARGE          LOW.POP.     CHARGE
    1 CL           17.105924   -0.105924        17.141077   -0.141077
    2 C             6.658943   -0.658943         6.206006   -0.206006
    3 H             0.745043    0.254957         0.884302    0.115698
    4 H             0.745043    0.254957         0.884293    0.115707
    5 H             0.745046    0.254954         0.884322    0.115678

          -------------------------------
          BOND ORDER AND VALENCE ANALYSIS     BOND ORDER THRESHOLD=0.050
          -------------------------------

                   BOND                       BOND                       BOND
  ATOM PAIR DIST  ORDER      ATOM PAIR DIST  ORDER      ATOM PAIR DIST  ORDER
    1   2  1.806  0.914        2   3  1.076  0.897        2   4  1.076  0.897
    2   5  1.076  0.897

                       TOTAL       BONDED        FREE
      ATOM            VALENCE     VALENCE     VALENCE
    1 CL                0.916       0.916      -0.000
    2 C                 3.604       3.604      -0.000
    3 H                 0.888       0.888       0.000
    4 H                 0.888       0.888       0.000
    5 H                 0.888       0.888       0.000

          ---------------------
          ELECTROSTATIC MOMENTS
          ---------------------

 POINT   1           X           Y           Z (BOHR)    CHARGE
                 0.144252    0.012972   -0.346037       -0.00 (A.U.)
         DX          DY          DZ         /D/  (DEBYE)
    -0.888122   -0.080059    2.130845    2.309907
 ...... END OF PROPERTY EVALUATION ......
 STEP CPU TIME =     0.00 TOTAL CPU TIME =        0.1 (    0.0 MIN)
 TOTAL WALL CLOCK TIME=        0.1 SECONDS, CPU UTILIZATION IS  81.82%
      580000  WORDS OF DYNAMIC MEMORY USED
 EXECUTION OF GAMESS TERMINATED NORMALLY Mon Nov 14 12:13:27 2011
 DDI: 263224 bytes (0.3 MB / 0 MWords) used by master data server.

 ----------------------------------------
 CPU timing information for all processes
 ========================================
 0: 0.68 + 0.36 = 0.104
 ----------------------------------------
 ddikick.x: exited gracefully.
unset echo
----- accounting info -----
Files used on the master node idhi were:
-rw-r--r-- 1 koushik koushik     461 2011-11-14 12:13 /home/koushik/Desktop/gamess/chloromethane.F05
-rw-r--r-- 1 koushik koushik 1980132 2011-11-14 12:13 /home/koushik/Desktop/gamess/chloromethane.F08
-rw-r--r-- 1 koushik koushik  916160 2011-11-14 12:13 /home/koushik/Desktop/gamess/chloromethane.F10
Mon Nov 14 12:13:30 IST 2011
0.1u 0.0s 0:03.18 3.7% 0+0k 0+24io 0pf+0w
