
          ******************************************************
          *         GAMESS VERSION =  1 OCT 2010 (R1)          *
          *             FROM IOWA STATE UNIVERSITY             *
          * M.W.SCHMIDT, K.K.BALDRIDGE, J.A.BOATZ, S.T.ELBERT, *
          *   M.S.GORDON, J.H.JENSEN, S.KOSEKI, N.MATSUNAGA,   *
          *          K.A.NGUYEN, S.J.SU, T.L.WINDUS,           *
          *       TOGETHER WITH M.DUPUIS, J.A.MONTGOMERY       *
          *         J.COMPUT.CHEM.  14, 1347-1363(1993)        *
          **************** 32 BIT LINUX VERSION ****************

  SINCE 1993, STUDENTS AND POSTDOCS WORKING AT IOWA STATE UNIVERSITY
  AND ALSO IN THEIR VARIOUS JOBS AFTER LEAVING ISU HAVE MADE IMPORTANT
  CONTRIBUTIONS TO THE CODE:
     IVANA ADAMOVIC, CHRISTINE AIKENS, YURI ALEXEEV, POOJA ARORA,
     ANDREY ASADCHEV, ROB BELL, PRADIPTA BANDYOPADHYAY, JONATHAN BENTZ,
     BRETT BODE, GALINA CHABAN, WEI CHEN, CHEOL HO CHOI, PAUL DAY, TIM DUDLEY,
     DMITRI FEDOROV, GRAHAM FLETCHER, MARK FREITAG, KURT GLAESEMANN, DAN KEMP,
     GRANT MERRILL, NORIYUKI MINEZAWA, JONATHAN MULLIN, TAKESHI NAGATA,
     SEAN NEDD, HEATHER NETZLOFF, BOSILJKA NJEGIC, RYAN OLSON, MIKE PAK,
     JIM SHOEMAKER, LYUDMILA SLIPCHENKO, SAROM SOK, JIE SONG,
     TETSUYA TAKETSUGU, SIMON WEBB, SOOHAENG YOO, FEDERICO ZAHARIEV

  ADDITIONAL CODE HAS BEEN PROVIDED BY COLLABORATORS IN OTHER GROUPS:
     IOWA STATE UNIVERSITY:
          JOE IVANIC, LAIMUTIS BYTAUTAS, KLAUS RUEDENBERG
     UNIVERSITY OF TOKYO: KIMIHIKO HIRAO, TAKAHITO NAKAJIMA,
          TAKAO TSUNEDA, MUNEAKI KAMIYA, SUSUMU YANAGISAWA,
          KIYOSHI YAGI, MAHITO CHIBA, SEIKEN TOKURA, NAOAKI KAWAKAMI
     UNIVERSITY OF AARHUS: FRANK JENSEN
     UNIVERSITY OF IOWA: VISVALDAS KAIRYS, HUI LI
     NATIONAL INST. OF STANDARDS AND TECHNOLOGY: WALT STEVENS, DAVID GARMER
     UNIVERSITY OF PISA: BENEDETTA MENNUCCI, JACOPO TOMASI
     UNIVERSITY OF MEMPHIS: HENRY KURTZ, PRAKASHAN KORAMBATH
     UNIVERSITY OF ALBERTA: TOBY ZENG, MARIUSZ KLOBUKOWSKI
     UNIVERSITY OF NEW ENGLAND: MARK SPACKMAN
     MIE UNIVERSITY: HIROAKI UMEDA
     MICHIGAN STATE UNIVERSITY:
          KAROL KOWALSKI, MARTA WLOCH, JEFFREY GOUR, JESSE LUTZ, PIOTR PIECUCH
     UNIVERSITY OF SILESIA: MONIKA MUSIAL, STANISLAW KUCHARSKI
     FACULTES UNIVERSITAIRES NOTRE-DAME DE LA PAIX:
          OLIVIER QUINET, BENOIT CHAMPAGNE
     UNIVERSITY OF CALIFORNIA - SANTA BARBARA: BERNARD KIRTMAN
     INSTITUTE FOR MOLECULAR SCIENCE:
          KAZUYA ISHIMURA, MICHIO KATOUDA, AND SHIGERU NAGASE
     UNIVERSITY OF NOTRE DAME: DAN CHIPMAN
     KYUSHU UNIVERSITY:
          HARUYUKI NAKANO,
          FENG LONG GU, JACEK KORCHOWIEC, MARCIN MAKOWSKI, AND YURIKO AOKI,
          HIROTOSHI MORI AND EISAKU MIYOSHI
     PENNSYLVANIA STATE UNIVERSITY:
          TZVETELIN IORDANOV, CHET SWALINA, JONATHAN SKONE,
          SHARON HAMMES-SCHIFFER
     WASEDA UNIVERSITY:
          MASATO KOBAYASHI, TOMOKO AKAMA, HIROMI NAKAI
     UNIVERSITY OF NEBRASKA:
          PEIFENG SU, DEJUN SI, YALI WANG, HUI LI
     UNIVERSITY OF ZURICH:
          ROBERTO PEVERATI, KIM BALDRIDGE
     N. COPERNICUS UNIVERSITY AND JACKSON STATE UNIVERSITY:
          MARIA BARYSZ

 EXECUTION OF GAMESS BEGUN Mon Nov 14 12:15:36 2011

            ECHO OF THE FIRST FEW INPUT CARDS -
 INPUT CARD> $CONTRL RUNTYP=ENERGY ICHARG=-1 COORD=UNIQUE $END                              
 INPUT CARD> $BASIS GBASIS=N21 NGAUSS=3 NDFUNC=1 $END                                       
 INPUT CARD> $DATA                                                                          
 INPUT CARD>3-21g(d) / Iodine single point energy                                           
 INPUT CARD>C1                                                                              
 INPUT CARD>I  53.0  -0.1517900000  -0.2642800000   0.0000000000                            
 INPUT CARD> $END                                                                           
    1000000 WORDS OF MEMORY AVAILABLE

     BASIS OPTIONS
     -------------
     GBASIS=N21          IGAUSS=       3      POLAR=COMMON  
     NDFUNC=       1     NFFUNC=       0     DIFFSP=       F
     NPFUNC=       0      DIFFS=       F     BASNAM=        


     RUN TITLE
     ---------
 3-21g(d) / Iodine single point energy                                           

 THE POINT GROUP OF THE MOLECULE IS C1      
 THE ORDER OF THE PRINCIPAL AXIS IS     0

 ATOM      ATOMIC                      COORDINATES (BOHR)
           CHARGE         X                   Y                   Z
 I          53.0    -0.2868415077       -0.4994167840        0.0000000000

          INTERNUCLEAR DISTANCES (ANGS.)
          ------------------------------

                1 I     

   1 I       0.0000000  

  * ... LESS THAN  3.000


     ATOMIC BASIS SET
     ----------------
 THE CONTRACTED PRIMITIVE FUNCTIONS HAVE BEEN UNNORMALIZED
 THE CONTRACTED BASIS FUNCTIONS ARE NOW NORMALIZED TO UNITY

  SHELL TYPE  PRIMITIVE        EXPONENT          CONTRACTION COEFFICIENT(S)

 I         

      1   S       1         14351.1860000    0.061002801211
      1   S       2          2173.0741000    0.366639807281
      1   S       3           477.8720500    0.691130613725

      2   L       4           648.1887000   -0.112850698620    0.154114493237
      2   L       5           140.3064000    0.083228338982    0.619461772816
      2   L       6            45.6988000    0.969751588138    0.383758283159

      3   L       7            56.6946900   -0.273696515460   -0.152321688285
      3   L       8            27.4887500    0.046499682627    0.543768558178
      3   L       9             8.2090960    1.091576061658    0.656167849533

      4   D      10           128.0902600    0.115863604354
      4   D      11            35.9823780    0.482049418114
      4   D      12            11.5511160    0.589444822149

      5   L      13             8.1916790   -0.450827701928    0.011869880145
      5   L      14             3.2445960    0.463209401981    0.526524606432
      5   L      15             1.3004890    0.838636003587    0.526607606433

      6   D      16             6.1461523    0.268181706033
      6   D      17             2.2209370    0.580061413050
      6   D      18             0.8099120    0.326226307339

      7   L      19             1.4513800   -0.665851440678    0.027541310868
      7   L      20             0.3281033    1.328583881634    0.985136831056

      8   L      21             0.1150759    1.000000000000    1.000000000000

      9   D      22             0.2660000    1.000000000000

 TOTAL NUMBER OF BASIS SET SHELLS             =    9
 NUMBER OF CARTESIAN GAUSSIAN BASIS FUNCTIONS =   39
 NUMBER OF ELECTRONS                          =   54
 CHARGE OF MOLECULE                           =   -1
 SPIN MULTIPLICITY                            =    1
 NUMBER OF OCCUPIED ORBITALS (ALPHA)          =   27
 NUMBER OF OCCUPIED ORBITALS (BETA )          =   27
 TOTAL NUMBER OF ATOMS                        =    1
 THE NUCLEAR REPULSION ENERGY IS        0.0000000000

 THIS MOLECULE IS RECOGNIZED AS BEING LINEAR,
 ORBITAL LZ DEGENERACY TOLERANCE ETOLLZ= 1.00E-06

     $CONTRL OPTIONS
     ---------------
 SCFTYP=RHF          RUNTYP=ENERGY       EXETYP=RUN     
 MPLEVL=       0     CITYP =NONE         CCTYP =NONE         VBTYP =NONE    
 DFTTYP=NONE         TDDFT =NONE    
 MULT  =       1     ICHARG=      -1     NZVAR =       0     COORD =UNIQUE  
 PP    =NONE         RELWFN=NONE         LOCAL =NONE         NUMGRD=       F
 ISPHER=      -1     NOSYM =       0     MAXIT =      30     UNITS =ANGS    
 PLTORB=       F     MOLPLT=       F     AIMPAC=       F     FRIEND=        
 NPRINT=       7     IREST =       0     GEOM  =INPUT   
 NORMF =       0     NORMP =       0     ITOL  =      20     ICUT  =       9
 INTTYP=BEST         GRDTYP=BEST         QMTTOL= 1.0E-06

     $SYSTEM OPTIONS
     ---------------
  REPLICATED MEMORY=     1000000 WORDS (ON EVERY NODE).
 DISTRIBUTED MEMDDI=           0 MILLION WORDS IN AGGREGATE,
 MEMDDI DISTRIBUTED OVER   1 PROCESSORS IS           0 WORDS/PROCESSOR.
 TOTAL MEMORY REQUESTED ON EACH PROCESSOR=     1000000 WORDS.
 TIMLIM=      525600.00 MINUTES, OR     365.0 DAYS.
 PARALL= F  BALTYP=  DLB     KDIAG=    0  COREFL= F
 MXSEQ2=     300 MXSEQ3=     150

          ----------------
          PROPERTIES INPUT
          ----------------

     MOMENTS            FIELD           POTENTIAL          DENSITY
 IEMOM =       1   IEFLD =       0   IEPOT =       0   IEDEN =       0
 WHERE =COMASS     WHERE =NUCLEI     WHERE =NUCLEI     WHERE =NUCLEI  
 OUTPUT=BOTH       OUTPUT=BOTH       OUTPUT=BOTH       OUTPUT=BOTH    
 IEMINT=       0   IEFINT=       0                     IEDINT=       0
                                                       MORB  =       0
          EXTRAPOLATION IN EFFECT
          SOSCF IN EFFECT
 ORBITAL PRINTING OPTION: NPREO=     1    39     2     1

     -------------------------------
     INTEGRAL TRANSFORMATION OPTIONS
     -------------------------------
     NWORD  =            0
     CUTOFF = 1.0E-09     MPTRAN =       0
     DIRTRF =       F     AOINTS =DUP     

          ----------------------
          INTEGRAL INPUT OPTIONS
          ----------------------
 NOPK  =       1 NORDER=       0 SCHWRZ=       F

     ------------------------------------------
     THE POINT GROUP IS C1 , NAXIS= 0, ORDER= 1
     ------------------------------------------

     DIMENSIONS OF THE SYMMETRY SUBSPACES ARE
 A   =   39

 ..... DONE SETTING UP THE RUN .....
 STEP CPU TIME =     0.00 TOTAL CPU TIME =        0.0 (    0.0 MIN)
 TOTAL WALL CLOCK TIME=        0.0 SECONDS, CPU UTILIZATION IS   0.00%

          ********************
          1 ELECTRON INTEGRALS
          ********************
 ...... END OF ONE-ELECTRON INTEGRALS ......
 STEP CPU TIME =     0.00 TOTAL CPU TIME =        0.0 (    0.0 MIN)
 TOTAL WALL CLOCK TIME=        0.0 SECONDS, CPU UTILIZATION IS   0.00%

          -------------
          GUESS OPTIONS
          -------------
          GUESS =HUCKEL            NORB  =       0          NORDER=       0
          MIX   =       F          PRTMO =       F          PUNMO =       F
          TOLZ  = 1.0E-08          TOLE  = 1.0E-05
          SYMDEN=       F          PURIFY=       F

 INITIAL GUESS ORBITALS GENERATED BY HUCKEL   ROUTINE.
 HUCKEL GUESS REQUIRES     15811 WORDS.

 SYMMETRIES FOR INITIAL GUESS ORBITALS FOLLOW.   BOTH SET(S).
    27 ORBITALS ARE OCCUPIED (   23 CORE ORBITALS).
    24=A       25=A       26=A       27=A       28=A       29=A       30=A   
    31=A       32=A       33=A       34=A       35=A       36=A       37=A   
 ...... END OF INITIAL ORBITAL SELECTION ......
 STEP CPU TIME =     0.01 TOTAL CPU TIME =        0.0 (    0.0 MIN)
 TOTAL WALL CLOCK TIME=        0.0 SECONDS, CPU UTILIZATION IS  50.00%

                    ----------------------
                    AO INTEGRAL TECHNOLOGY
                    ----------------------
     S,P,L SHELL ROTATED AXIS INTEGRALS, REPROGRAMMED BY
        KAZUYA ISHIMURA (IMS) AND JOSE SIERRA (SYNSTAR).
     S,P,D,L SHELL ROTATED AXIS INTEGRALS PROGRAMMED BY
        KAZUYA ISHIMURA (INSTITUTE FOR MOLECULAR SCIENCE).
     S,P,D,F,G SHELL TO TOTAL QUARTET ANGULAR MOMENTUM SUM 5,
        ERIC PROGRAM BY GRAHAM FLETCHER (ELORET AND NASA ADVANCED
        SUPERCOMPUTING DIVISION, AMES RESEARCH CENTER).
     S,P,D,F,G,L SHELL GENERAL RYS QUADRATURE PROGRAMMED BY
        MICHEL DUPUIS (PACIFIC NORTHWEST NATIONAL LABORATORY).

          --------------------
          2 ELECTRON INTEGRALS
          --------------------

 THE -PK- OPTION IS OFF, THE INTEGRALS ARE NOT IN SUPERMATRIX FORM.
 STORING   15000 INTEGRALS/RECORD ON DISK, USING 12 BYTES/INTEGRAL.
 TWO ELECTRON INTEGRAL EVALUATION REQUIRES   90441 WORDS OF MEMORY.
 II,JST,KST,LST =  1  1  1  1 NREC =         1 INTLOC =    1
 II,JST,KST,LST =  2  1  1  1 NREC =         1 INTLOC =    2
 II,JST,KST,LST =  3  1  1  1 NREC =         1 INTLOC =   34
 II,JST,KST,LST =  4  1  1  1 NREC =         1 INTLOC =  214
 II,JST,KST,LST =  5  1  1  1 NREC =         1 INTLOC = 1189
 II,JST,KST,LST =  6  1  1  1 NREC =         1 INTLOC = 2864
 II,JST,KST,LST =  7  1  1  1 NREC =         1 INTLOC = 7967
 II,JST,KST,LST =  8  1  1  1 NREC =         1 INTLOC =14065
 II,JST,KST,LST =  9  1  1  1 NREC =         2 INTLOC = 8257
 TOTAL NUMBER OF NONZERO TWO-ELECTRON INTEGRALS =               43986
          3 INTEGRAL RECORDS WERE STORED ON DISK FILE  8.
  ...... END OF TWO-ELECTRON INTEGRALS .....
 STEP CPU TIME =     0.06 TOTAL CPU TIME =        0.1 (    0.0 MIN)
 TOTAL WALL CLOCK TIME=        0.1 SECONDS, CPU UTILIZATION IS 100.00%

          --------------------------
                 RHF SCF CALCULATION
          --------------------------

     NUCLEAR ENERGY =         0.0000000000
     MAXIT =   30     NPUNCH=    2
     EXTRAP=T  DAMP=F  SHIFT=F  RSTRCT=F  DIIS=F  DEM=F  SOSCF=T
     DENSITY MATRIX CONV=  1.00E-05
     SOSCF WILL OPTIMIZE     324 ORBITAL ROTATIONS, SOGTOL=   0.250
     MEMORY REQUIRED FOR RHF ITERS=     42489 WORDS.

 ITER EX DEM     TOTAL ENERGY        E CHANGE  DENSITY CHANGE     ORB. GRAD
   1  0  0    -6887.2863622481 -6887.2863622481   0.443542700   0.000000000
          ---------------START SECOND ORDER SCF---------------
   2  1  0    -6887.9677037914    -0.6813415433   0.158704014   0.077592731
   3  2  0    -6887.9706516187    -0.0029478273   0.032219108   0.005174157
   4  3  0    -6887.9709263776    -0.0002747589   0.000801749   0.000087990
   5  4  0    -6887.9709264047    -0.0000000271   0.000129324   0.000011682
   6  5  0    -6887.9709264051    -0.0000000004   0.000008667   0.000000853
   7  6  0    -6887.9709264051    -0.0000000000   0.000000591   0.000000193

          -----------------
          DENSITY CONVERGED
          -----------------
     TIME TO FORM FOCK OPERATORS=       0.0 SECONDS (       0.0 SEC/ITER)
     TIME TO SOLVE SCF EQUATIONS=       0.0 SECONDS (       0.0 SEC/ITER)

 FINAL RHF ENERGY IS    -6887.9709264051 AFTER   7 ITERATIONS

 LZ VALUE ANALYSIS FOR THE MOS
 ----------------------------------------
 MO     1 (    1) HAS LZ(WEIGHT)= 0.00(100.0%) 
 MO     2 (    2) HAS LZ(WEIGHT)= 0.00(100.0%) 
 MO     3 (    3) HAS LZ(WEIGHT)=-1.00( 36.3%)  0.00( 27.4%)  1.00( 36.3%) 
 MO     4 (    3) HAS LZ(WEIGHT)=-1.00( 25.1%)  0.00( 49.8%)  1.00( 25.1%) 
 MO     5 (    3) HAS LZ(WEIGHT)=-1.00( 38.6%)  0.00( 22.7%)  1.00( 38.6%) 
 MO     6 (    4) HAS LZ(WEIGHT)= 0.00(100.0%) 
 MO     7 (    5) HAS LZ(WEIGHT)=-1.00( 37.5%)  0.00( 24.9%)  1.00( 37.5%) 
 MO     8 (    5) HAS LZ(WEIGHT)=-1.00( 26.2%)  0.00( 47.5%)  1.00( 26.2%) 
 MO     9 (    5) HAS LZ(WEIGHT)=-1.00( 36.2%)  0.00( 27.6%)  1.00( 36.2%) 
 MO    10 (    6) HAS LZ(WEIGHT)=-2.00( 12.9%) -1.00( 32.7%) -0.00(  8.9%)  1.00( 32.7%)  2.00( 12.9%) 
 MO    11 (    6) HAS LZ(WEIGHT)=-2.00( 28.2%) -1.00( 17.1%) -0.00(  9.4%)  1.00( 17.1%)  2.00( 28.2%) 
 MO    12 (    6) HAS LZ(WEIGHT)=-2.00(  9.7%) -1.00(  3.6%) -0.00( 73.5%)  1.00(  3.6%)  2.00(  9.7%) 
 MO    13 (    6) HAS LZ(WEIGHT)=-2.00( 35.9%) -1.00( 10.7%) -0.00(  6.7%)  1.00( 10.7%)  2.00( 35.9%) 
 MO    14 (    6) HAS LZ(WEIGHT)=-2.00( 13.3%) -1.00( 35.9%) -0.00(  1.6%)  1.00( 35.9%)  2.00( 13.3%) 
 MO    15 (    7) HAS LZ(WEIGHT)= 0.00(100.0%) 
 MO    16 (    8) HAS LZ(WEIGHT)=-1.00( 37.7%) -0.00( 24.5%)  1.00( 37.7%) 
 MO    17 (    8) HAS LZ(WEIGHT)=-1.00( 25.5%) -0.00( 49.1%)  1.00( 25.5%) 
 MO    18 (    8) HAS LZ(WEIGHT)=-1.00( 36.8%) -0.00( 26.4%)  1.00( 36.8%) 
 MO    19 (    9) HAS LZ(WEIGHT)=-2.00(  8.0%) -1.00( 22.7%)  0.00( 38.8%)  1.00( 22.7%)  2.00(  8.0%) 
 MO    20 (    9) HAS LZ(WEIGHT)=-2.00( 38.1%) -1.00(  6.5%)  0.00( 10.8%)  1.00(  6.5%)  2.00( 38.1%) 
 MO    21 (    9) HAS LZ(WEIGHT)=-2.00(  6.3%) -1.00( 42.2%)  0.00(  2.9%)  1.00( 42.2%)  2.00(  6.3%) 
 MO    22 (    9) HAS LZ(WEIGHT)=-2.00( 36.7%) -1.00( 11.9%)  0.00(  2.9%)  1.00( 11.9%)  2.00( 36.7%) 
 MO    23 (    9) HAS LZ(WEIGHT)=-2.00( 10.9%) -1.00( 16.8%)  0.00( 44.6%)  1.00( 16.8%)  2.00( 10.9%) 
 MO    24 (   10) HAS LZ(WEIGHT)= 0.00(100.0%) 
 MO    25 (   11) HAS LZ(WEIGHT)=-1.00( 35.0%) -0.00( 30.0%)  1.00( 35.0%) 
 MO    26 (   11) HAS LZ(WEIGHT)=-1.00( 23.8%) -0.00( 52.5%)  1.00( 23.8%) 
 MO    27 (   11) HAS LZ(WEIGHT)=-1.00( 41.2%) -0.00( 17.6%)  1.00( 41.2%) 
 MO    28 (   12) HAS LZ(WEIGHT)= 0.00(100.0%) 
 MO    29 (   13) HAS LZ(WEIGHT)=-2.00(  1.3%) -1.00( 48.6%)  1.00( 48.6%)  2.00(  1.3%) 
 MO    30 (   13) HAS LZ(WEIGHT)=-2.00( 31.2%) -1.00( 18.1%) -0.00(  1.4%)  1.00( 18.1%)  2.00( 31.2%) 
 MO    31 (   13) HAS LZ(WEIGHT)=-2.00( 17.4%) -1.00( 32.6%)  1.00( 32.6%)  2.00( 17.4%) 
 MO    32 (   13) HAS LZ(WEIGHT)=-2.00( 26.7%) -0.00( 46.5%)  2.00( 26.7%) 
 MO    33 (   13) HAS LZ(WEIGHT)=-2.00( 23.3%) -0.00( 52.0%)  2.00( 23.3%) 
 MO    34 (   14) HAS LZ(WEIGHT)=-1.00( 34.4%)  0.00( 31.2%)  1.00( 34.4%) 
 MO    35 (   14) HAS LZ(WEIGHT)=-1.00( 28.8%)  0.00( 42.5%)  1.00( 28.8%) 
 MO    36 (   14) HAS LZ(WEIGHT)=-1.00( 36.8%)  0.00( 26.3%)  1.00( 36.8%) 
 MO    37 (   15) HAS LZ(WEIGHT)= 0.00(100.0%) 
 MO    38 (   16) HAS LZ(WEIGHT)= 0.00(100.0%) 
 MO    39 (   17) HAS LZ(WEIGHT)= 0.00(100.0%) 

          ------------
          EIGENVECTORS
          ------------

                      1          2          3          4          5
                -1170.1390  -179.8321  -168.0726  -168.0726  -168.0726
                     A          A          A          A          A   
    1  I  1  S    0.972421  -0.344050   0.000000   0.000000   0.000000
    2  I  1  S    0.113577   1.035078   0.000000   0.000000   0.000000
    3  I  1  X    0.000000  -0.000000   0.466398   0.689451  -0.508620
    4  I  1  Y    0.000000  -0.000000   0.687757   0.044047   0.690372
    5  I  1  Z    0.000000  -0.000000   0.510908  -0.688681  -0.465033
    6  I  1  S    0.242311   0.147949   0.000000   0.000000   0.000000
    7  I  1  X    0.000000  -0.000000   0.029858   0.044138  -0.032561
    8  I  1  Y    0.000000  -0.000000   0.044029   0.002820   0.044197
    9  I  1  Z    0.000000  -0.000000   0.032708  -0.044089  -0.029771
   10  I  1 XX   -0.128153  -0.047064   0.000000   0.000000   0.000000
   11  I  1 YY   -0.128153  -0.047064   0.000000   0.000000   0.000000
   12  I  1 ZZ   -0.128153  -0.047064   0.000000   0.000000   0.000000
   13  I  1 XY    0.000000  -0.000000   0.000000   0.000000   0.000000
   14  I  1 XZ    0.000000  -0.000000   0.000000   0.000000   0.000000
   15  I  1 YZ    0.000000  -0.000000   0.000000   0.000000   0.000000
   16  I  1  S    0.053652  -0.080773   0.000000   0.000000   0.000000
   17  I  1  X    0.000000  -0.000000  -0.008882  -0.013130   0.009687
   18  I  1  Y    0.000000  -0.000000  -0.013098  -0.000839  -0.013148
   19  I  1  Z    0.000000  -0.000000  -0.009730   0.013116   0.008856
   20  I  1 XX   -0.026310   0.037050   0.000000   0.000000   0.000000
   21  I  1 YY   -0.026310   0.037050   0.000000   0.000000   0.000000
   22  I  1 ZZ   -0.026310   0.037050   0.000000   0.000000   0.000000
   23  I  1 XY    0.000000  -0.000000   0.000000   0.000000   0.000000
   24  I  1 XZ    0.000000  -0.000000   0.000000   0.000000   0.000000
   25  I  1 YZ    0.000000  -0.000000   0.000000   0.000000   0.000000
   26  I  1  S    0.019238  -0.026000   0.000000   0.000000   0.000000
   27  I  1  X    0.000000  -0.000000   0.003919   0.005793  -0.004273
   28  I  1  Y    0.000000  -0.000000   0.005778   0.000370   0.005800
   29  I  1  Z    0.000000  -0.000000   0.004293  -0.005786  -0.003907
   30  I  1  S    0.006386  -0.007786   0.000000   0.000000   0.000000
   31  I  1  X    0.000000  -0.000000  -0.001769  -0.002615   0.001929
   32  I  1  Y    0.000000  -0.000000  -0.002609  -0.000167  -0.002619
   33  I  1  Z    0.000000  -0.000000  -0.001938   0.002612   0.001764
   34  I  1 XX   -0.005335   0.006804   0.000000   0.000000   0.000000
   35  I  1 YY   -0.005335   0.006804   0.000000   0.000000   0.000000
   36  I  1 ZZ   -0.005335   0.006804   0.000000   0.000000   0.000000
   37  I  1 XY    0.000000  -0.000000   0.000000   0.000000   0.000000
   38  I  1 XZ    0.000000  -0.000000   0.000000   0.000000   0.000000
   39  I  1 YZ    0.000000  -0.000000   0.000000   0.000000   0.000000

                      6          7          8          9         10
                  -37.5551   -32.4489   -32.4489   -32.4489   -23.9036
                     A          A          A          A          A   
    1  I  1  S    0.151816  -0.000000  -0.000000   0.000000   0.000000
    2  I  1  S   -0.547391  -0.000000  -0.000000   0.000000   0.000000
    3  I  1  X    0.000000  -0.238620  -0.339720   0.219216   0.000000
    4  I  1  Y    0.000000  -0.329480   0.015864  -0.334060   0.000000
    5  I  1  Z    0.000000  -0.234325   0.323641   0.246482   0.000000
    6  I  1  S    1.099321  -0.000000  -0.000000   0.000000   0.000000
    7  I  1  X    0.000000   0.541549   0.770995  -0.497511   0.000000
    8  I  1  Y    0.000000   0.747755  -0.036004   0.758150   0.000000
    9  I  1  Z    0.000000   0.531800  -0.734504  -0.559390   0.000000
   10  I  1 XX   -0.006397  -0.000000  -0.000000   0.000000   0.212944
   11  I  1 YY   -0.006397  -0.000000  -0.000000   0.000000   0.077798
   12  I  1 ZZ   -0.006397  -0.000000  -0.000000   0.000000  -0.290742
   13  I  1 XY    0.000000  -0.000000  -0.000000   0.000000   0.489085
   14  I  1 XZ    0.000000  -0.000000  -0.000000   0.000000   0.655086
   15  I  1 YZ    0.000000  -0.000000  -0.000000   0.000000   0.439751
   16  I  1  S    0.102175  -0.000000  -0.000000   0.000000   0.000000
   17  I  1  X    0.000000   0.018660   0.026565  -0.017142   0.000000
   18  I  1  Y    0.000000   0.025765  -0.001241   0.026123   0.000000
   19  I  1  Z    0.000000   0.018324  -0.025308  -0.019274   0.000000
   20  I  1 XX   -0.025861  -0.000000  -0.000000   0.000000   0.014876
   21  I  1 YY   -0.025861  -0.000000  -0.000000   0.000000   0.005435
   22  I  1 ZZ   -0.025861  -0.000000  -0.000000   0.000000  -0.020311
   23  I  1 XY    0.000000  -0.000000  -0.000000   0.000000   0.034167
   24  I  1 XZ    0.000000  -0.000000  -0.000000   0.000000   0.045763
   25  I  1 YZ    0.000000  -0.000000  -0.000000   0.000000   0.030720
   26  I  1  S    0.008388  -0.000000  -0.000000   0.000000   0.000000
   27  I  1  X    0.000000  -0.003839  -0.005466   0.003527   0.000000
   28  I  1  Y    0.000000  -0.005301   0.000255  -0.005375   0.000000
   29  I  1  Z    0.000000  -0.003770   0.005207   0.003966   0.000000
   30  I  1  S   -0.001747  -0.000000  -0.000000   0.000000   0.000000
   31  I  1  X    0.000000   0.001575   0.002243  -0.001447   0.000000
   32  I  1  Y    0.000000   0.002175  -0.000105   0.002205   0.000000
   33  I  1  Z    0.000000   0.001547  -0.002137  -0.001627   0.000000
   34  I  1 XX    0.000356  -0.000000  -0.000000   0.000000  -0.003226
   35  I  1 YY    0.000356  -0.000000  -0.000000   0.000000  -0.001179
   36  I  1 ZZ    0.000356  -0.000000  -0.000000   0.000000   0.004405
   37  I  1 XY    0.000000  -0.000000  -0.000000   0.000000  -0.007410
   38  I  1 XZ    0.000000  -0.000000  -0.000000   0.000000  -0.009925
   39  I  1 YZ    0.000000  -0.000000  -0.000000   0.000000  -0.006663

                     11         12         13         14         15
                  -23.9036   -23.9036   -23.9036   -23.9036    -6.9518
                     A          A          A          A          A   
    1  I  1  S    0.000000  -0.000000  -0.000000   0.000000  -0.068064
    2  I  1  S    0.000000  -0.000000  -0.000000   0.000000   0.258586
    3  I  1  X    0.000000  -0.000000  -0.000000   0.000000   0.000000
    4  I  1  Y    0.000000  -0.000000  -0.000000   0.000000   0.000000
    5  I  1  Z    0.000000  -0.000000  -0.000000   0.000000   0.000000
    6  I  1  S    0.000000  -0.000000  -0.000000   0.000000  -0.689570
    7  I  1  X    0.000000  -0.000000  -0.000000   0.000000   0.000000
    8  I  1  Y    0.000000  -0.000000  -0.000000   0.000000   0.000000
    9  I  1  Z    0.000000  -0.000000  -0.000000   0.000000   0.000000
   10  I  1 XX   -0.379600  -0.769573  -0.377783  -0.167147   0.011009
   11  I  1 YY    0.678389  -0.066836   0.630287   0.290430   0.011009
   12  I  1 ZZ   -0.298789   0.836409  -0.252504  -0.123283   0.011009
   13  I  1 XY   -0.404724   0.139625   0.587852  -0.429270   0.000000
   14  I  1 XZ   -0.130860   0.211178  -0.214614   0.644534   0.000000
   15  I  1 YZ    0.555903   0.155107  -0.397769  -0.517353   0.000000
   16  I  1  S    0.000000  -0.000000  -0.000000   0.000000   1.122191
   17  I  1  X    0.000000  -0.000000  -0.000000   0.000000   0.000000
   18  I  1  Y    0.000000  -0.000000  -0.000000   0.000000   0.000000
   19  I  1  Z    0.000000  -0.000000  -0.000000   0.000000   0.000000
   20  I  1 XX   -0.026518  -0.053761  -0.026391  -0.011677   0.011889
   21  I  1 YY    0.047391  -0.004669   0.044031   0.020289   0.011889
   22  I  1 ZZ   -0.020873   0.058430  -0.017640  -0.008612   0.011889
   23  I  1 XY   -0.028273   0.009754   0.041066  -0.029988   0.000000
   24  I  1 XZ   -0.009142   0.014753  -0.014993   0.045026   0.000000
   25  I  1 YZ    0.038835   0.010836  -0.027788  -0.036142   0.000000
   26  I  1  S    0.000000  -0.000000  -0.000000   0.000000   0.002225
   27  I  1  X    0.000000  -0.000000  -0.000000   0.000000   0.000000
   28  I  1  Y    0.000000  -0.000000  -0.000000   0.000000   0.000000
   29  I  1  Z    0.000000  -0.000000  -0.000000   0.000000   0.000000
   30  I  1  S    0.000000  -0.000000  -0.000000   0.000000  -0.017644
   31  I  1  X    0.000000  -0.000000  -0.000000   0.000000   0.000000
   32  I  1  Y    0.000000  -0.000000  -0.000000   0.000000   0.000000
   33  I  1  Z    0.000000  -0.000000  -0.000000   0.000000   0.000000
   34  I  1 XX    0.005751   0.011660   0.005724   0.002532   0.010014
   35  I  1 YY   -0.010278   0.001013  -0.009550  -0.004400   0.010014
   36  I  1 ZZ    0.004527  -0.012673   0.003826   0.001868   0.010014
   37  I  1 XY    0.006132  -0.002115  -0.008907   0.006504   0.000000
   38  I  1 XZ    0.001983  -0.003200   0.003252  -0.009766   0.000000
   39  I  1 YZ   -0.008423  -0.002350   0.006027   0.007839   0.000000

                     16         17         18         19         20
                   -5.0774    -5.0774    -5.0774    -2.1146    -2.1146
                     A          A          A          A          A   
    1  I  1  S    0.000000  -0.000000  -0.000000   0.000000  -0.000000
    2  I  1  S    0.000000  -0.000000  -0.000000   0.000000  -0.000000
    3  I  1  X    0.120780   0.144642  -0.080839   0.000000  -0.000000
    4  I  1  Y    0.130913  -0.021974   0.156278   0.000000  -0.000000
    5  I  1  Z    0.101577  -0.143666  -0.105291   0.000000  -0.000000
    6  I  1  S    0.000000  -0.000000  -0.000000   0.000000  -0.000000
    7  I  1  X   -0.413645  -0.495368   0.276857   0.000000  -0.000000
    8  I  1  Y   -0.448351   0.075256  -0.535219   0.000000  -0.000000
    9  I  1  Z   -0.347880   0.492025   0.360600   0.000000  -0.000000
   10  I  1 XX    0.000000  -0.000000  -0.000000  -0.232347   0.134732
   11  I  1 YY    0.000000  -0.000000  -0.000000  -0.020089  -0.268028
   12  I  1 ZZ    0.000000  -0.000000  -0.000000   0.252436   0.133296
   13  I  1 XY    0.000000  -0.000000  -0.000000   0.105451   0.266809
   14  I  1 XZ    0.000000  -0.000000  -0.000000  -0.096944   0.118061
   15  I  1 YZ    0.000000  -0.000000  -0.000000  -0.255032   0.085647
   16  I  1  S    0.000000  -0.000000  -0.000000   0.000000   0.000000
   17  I  1  X    0.686313   0.821906  -0.459356   0.000000  -0.000000
   18  I  1  Y    0.743897  -0.124863   0.888026   0.000000  -0.000000
   19  I  1  Z    0.577196  -0.816359  -0.598302   0.000000  -0.000000
   20  I  1 XX    0.000000  -0.000000  -0.000000   0.603687  -0.350063
   21  I  1 YY    0.000000  -0.000000  -0.000000   0.052197   0.696396
   22  I  1 ZZ    0.000000  -0.000000  -0.000000  -0.655883  -0.346332
   23  I  1 XY    0.000000  -0.000000  -0.000000  -0.273985  -0.693228
   24  I  1 XZ    0.000000  -0.000000  -0.000000   0.251882  -0.306747
   25  I  1 YZ    0.000000  -0.000000  -0.000000   0.662627  -0.222529
   26  I  1  S    0.000000  -0.000000  -0.000000   0.000000  -0.000000
   27  I  1  X    0.017375   0.020807  -0.011629   0.000000  -0.000000
   28  I  1  Y    0.018832  -0.003161   0.022481   0.000000  -0.000000
   29  I  1  Z    0.014612  -0.020667  -0.015146   0.000000  -0.000000
   30  I  1  S    0.000000  -0.000000  -0.000000   0.000000  -0.000000
   31  I  1  X   -0.001637  -0.001961   0.001096   0.000000  -0.000000
   32  I  1  Y   -0.001775   0.000298  -0.002119   0.000000  -0.000000
   33  I  1  Z   -0.001377   0.001948   0.001427   0.000000  -0.000000
   34  I  1 XX    0.000000  -0.000000  -0.000000   0.005983  -0.003469
   35  I  1 YY    0.000000  -0.000000  -0.000000   0.000517   0.006902
   36  I  1 ZZ    0.000000  -0.000000  -0.000000  -0.006500  -0.003432
   37  I  1 XY    0.000000  -0.000000  -0.000000  -0.002715  -0.006870
   38  I  1 XZ    0.000000  -0.000000  -0.000000   0.002496  -0.003040
   39  I  1 YZ    0.000000  -0.000000  -0.000000   0.006567  -0.002205

                     21         22         23         24         25
                   -2.1146    -2.1146    -2.1146    -0.5329    -0.0949
                     A          A          A          A          A   
    1  I  1  S   -0.000000  -0.000000   0.000000   0.022451  -0.000000
    2  I  1  S   -0.000000  -0.000000   0.000000  -0.084195  -0.000000
    3  I  1  X   -0.000000  -0.000000   0.000000  -0.000000  -0.028277
    4  I  1  Y   -0.000000  -0.000000   0.000000  -0.000000  -0.036601
    5  I  1  Z   -0.000000  -0.000000   0.000000  -0.000000  -0.030244
    6  I  1  S   -0.000000  -0.000000   0.000000   0.244379  -0.000000
    7  I  1  X   -0.000000  -0.000000   0.000000  -0.000000   0.103865
    8  I  1  Y   -0.000000  -0.000000   0.000000  -0.000000   0.134439
    9  I  1  Z   -0.000000  -0.000000   0.000000  -0.000000   0.111090
   10  I  1 XX    0.085570   0.187846   0.222609  -0.004078  -0.000000
   11  I  1 YY   -0.154779  -0.256483   0.048146  -0.004078  -0.000000
   12  I  1 ZZ    0.069209   0.068636  -0.270755  -0.004078  -0.000000
   13  I  1 XY   -0.038036  -0.233972   0.160636  -0.000000  -0.000000
   14  I  1 XZ   -0.352663   0.077761  -0.102696  -0.000000  -0.000000
   15  I  1 YZ    0.120155  -0.181633  -0.210942  -0.000000  -0.000000
   16  I  1  S   -0.000000  -0.000000   0.000000  -0.498522  -0.000000
   17  I  1  X   -0.000000  -0.000000   0.000000  -0.000000  -0.231454
   18  I  1  Y   -0.000000  -0.000000   0.000000  -0.000000  -0.299585
   19  I  1  Z   -0.000000  -0.000000   0.000000  -0.000000  -0.247554
   20  I  1 XX   -0.222329  -0.488066  -0.578386   0.005005  -0.000000
   21  I  1 YY    0.402149   0.666398  -0.125094   0.005005  -0.000000
   22  I  1 ZZ   -0.179821  -0.178332   0.703479   0.005005  -0.000000
   23  I  1 XY    0.098825   0.607910  -0.417367  -0.000000  -0.000000
   24  I  1 XZ    0.916294  -0.202040   0.266827  -0.000000  -0.000000
   25  I  1 YZ   -0.312189   0.471922   0.548073  -0.000000  -0.000000
   26  I  1  S   -0.000000  -0.000000   0.000000   0.486226  -0.000000
   27  I  1  X   -0.000000  -0.000000   0.000000  -0.000000   0.262962
   28  I  1  Y   -0.000000  -0.000000   0.000000  -0.000000   0.340368
   29  I  1  Z   -0.000000  -0.000000   0.000000  -0.000000   0.281254
   30  I  1  S   -0.000000  -0.000000   0.000000   0.599915  -0.000000
   31  I  1  X   -0.000000  -0.000000   0.000000  -0.000000   0.324916
   32  I  1  Y   -0.000000  -0.000000   0.000000  -0.000000   0.420558
   33  I  1  Z   -0.000000  -0.000000   0.000000  -0.000000   0.347517
   34  I  1 XX   -0.002203  -0.004837  -0.005732   0.018004  -0.000000
   35  I  1 YY    0.003986   0.006605  -0.001240   0.018004  -0.000000
   36  I  1 ZZ   -0.001782  -0.001767   0.006972   0.018004  -0.000000
   37  I  1 XY    0.000979   0.006025  -0.004136  -0.000000  -0.000000
   38  I  1 XZ    0.009081  -0.002002   0.002644  -0.000000  -0.000000
   39  I  1 YZ   -0.003094   0.004677   0.005432  -0.000000  -0.000000

                     26         27         28         29         30
                   -0.0949    -0.0949     0.5257     0.7808     0.7808
                     A          A          A          A          A   
    1  I  1  S    0.000000  -0.000000  -0.017738   0.000000   0.000000
    2  I  1  S    0.000000  -0.000000  -0.012720   0.000000   0.000000
    3  I  1  X    0.037917   0.028578   0.000000   0.000000   0.000000
    4  I  1  Y    0.003780  -0.041232   0.000000   0.000000   0.000000
    5  I  1  Z   -0.040025   0.023178   0.000000   0.000000   0.000000
    6  I  1  S    0.000000  -0.000000  -0.363206   0.000000   0.000000
    7  I  1  X   -0.139271  -0.104968   0.000000   0.000000   0.000000
    8  I  1  Y   -0.013884   0.151447   0.000000   0.000000   0.000000
    9  I  1  Z    0.147015  -0.085136   0.000000   0.000000   0.000000
   10  I  1 XX    0.000000  -0.000000   0.018345   0.009649  -0.010000
   11  I  1 YY    0.000000  -0.000000   0.018345  -0.005302  -0.005047
   12  I  1 ZZ    0.000000  -0.000000   0.018345  -0.004347   0.015047
   13  I  1 XY    0.000000  -0.000000   0.000000   0.018978   0.101524
   14  I  1 XZ    0.000000  -0.000000   0.000000  -0.073397  -0.053455
   15  I  1 YZ    0.000000  -0.000000   0.000000   0.103288  -0.055767
   16  I  1  S    0.000000  -0.000000   0.712988   0.000000   0.000000
   17  I  1  X    0.310353   0.233913   0.000000   0.000000   0.000000
   18  I  1  Y    0.030939  -0.337486   0.000000   0.000000   0.000000
   19  I  1  Z   -0.327611   0.189719   0.000000   0.000000   0.000000
   20  I  1 XX    0.000000  -0.000000  -0.698761  -0.028338   0.029368
   21  I  1 YY    0.000000  -0.000000  -0.698761   0.015571   0.014821
   22  I  1 ZZ    0.000000  -0.000000  -0.698761   0.012766  -0.044190
   23  I  1 XY    0.000000  -0.000000   0.000000  -0.055734  -0.298151
   24  I  1 XZ    0.000000  -0.000000   0.000000   0.215550   0.156986
   25  I  1 YZ    0.000000  -0.000000   0.000000  -0.303333   0.163776
   26  I  1  S    0.000000  -0.000000  -1.068780   0.000000   0.000000
   27  I  1  X   -0.352602  -0.265756   0.000000   0.000000   0.000000
   28  I  1  Y   -0.035151   0.383429   0.000000   0.000000   0.000000
   29  I  1  Z    0.372209  -0.215546   0.000000   0.000000   0.000000
   30  I  1  S    0.000000  -0.000000   4.286891   0.000000   0.000000
   31  I  1  X   -0.435674  -0.328367   0.000000   0.000000   0.000000
   32  I  1  Y   -0.043433   0.473763   0.000000   0.000000   0.000000
   33  I  1  Z    0.459900  -0.266328   0.000000   0.000000   0.000000
   34  I  1 XX    0.000000  -0.000000  -1.213280   0.079495  -0.082386
   35  I  1 YY    0.000000  -0.000000  -1.213280  -0.043682  -0.041578
   36  I  1 ZZ    0.000000  -0.000000  -1.213280  -0.035813   0.123963
   37  I  1 XY    0.000000  -0.000000  -0.000000   0.156349   0.836393
   38  I  1 XZ    0.000000  -0.000000  -0.000000  -0.604675  -0.440387
   39  I  1 YZ    0.000000  -0.000000  -0.000000   0.850928  -0.459434

                     31         32         33         34         35
                    0.7808     0.7808     0.7808     0.8359     0.8359
                     A          A          A          A          A   
    1  I  1  S    0.000000   0.000000  -0.000000   0.000000   0.000000
    2  I  1  S    0.000000   0.000000  -0.000000   0.000000   0.000000
    3  I  1  X    0.000000   0.000000  -0.000000   0.033792  -0.055763
    4  I  1  Y    0.000000   0.000000  -0.000000  -0.050811   0.001697
    5  I  1  Z    0.000000   0.000000  -0.000000   0.041091   0.047956
    6  I  1  S    0.000000   0.000000  -0.000000   0.000000   0.000000
    7  I  1  X    0.000000   0.000000  -0.000000  -0.126451   0.208667
    8  I  1  Y    0.000000   0.000000  -0.000000   0.190136  -0.006349
    9  I  1  Z    0.000000   0.000000  -0.000000  -0.153764  -0.179452
   10  I  1 XX    0.006565  -0.036960   0.122094   0.000000   0.000000
   11  I  1 YY   -0.007868   0.124603  -0.029460   0.000000   0.000000
   12  I  1 ZZ    0.001303  -0.087642  -0.092634   0.000000   0.000000
   13  I  1 XY    0.075369   0.011128   0.006132   0.000000   0.000000
   14  I  1 XZ    0.090838  -0.000400  -0.003583   0.000000   0.000000
   15  I  1 YZ    0.050060   0.001778  -0.014884   0.000000   0.000000
   16  I  1  S    0.000000   0.000000  -0.000000   0.000000   0.000000
   17  I  1  X    0.000000   0.000000  -0.000000   0.307908  -0.508103
   18  I  1  Y    0.000000   0.000000  -0.000000  -0.462982   0.015460
   19  I  1  Z    0.000000   0.000000  -0.000000   0.374416   0.436966
   20  I  1 XX   -0.019278   0.108543  -0.358560   0.000000   0.000000
   21  I  1 YY    0.023106  -0.365928   0.086517   0.000000   0.000000
   22  I  1 ZZ   -0.003827   0.257384   0.272043   0.000000   0.000000
   23  I  1 XY   -0.221341  -0.032682  -0.018008   0.000000   0.000000
   24  I  1 XZ   -0.266769   0.001174   0.010521   0.000000   0.000000
   25  I  1 YZ   -0.147015  -0.005223   0.043711   0.000000   0.000000
   26  I  1  S    0.000000   0.000000  -0.000000   0.000000   0.000000
   27  I  1  X    0.000000   0.000000  -0.000000  -0.742981   1.226052
   28  I  1  Y    0.000000   0.000000  -0.000000   1.117175  -0.037304
   29  I  1  Z    0.000000   0.000000  -0.000000  -0.903464  -1.054397
   30  I  1  S    0.000000   0.000000  -0.000000   0.000000   0.000000
   31  I  1  X    0.000000   0.000000  -0.000000   0.622639  -1.027465
   32  I  1  Y    0.000000   0.000000  -0.000000  -0.936223   0.031262
   33  I  1  Z    0.000000   0.000000  -0.000000   0.757128   0.883613
   34  I  1 XX    0.054081  -0.304493   1.005857   0.000000   0.000000
   35  I  1 YY   -0.064818   1.026524  -0.242704   0.000000   0.000000
   36  I  1 ZZ    0.010737  -0.722031  -0.763153   0.000000   0.000000
   37  I  1 XY    0.620919   0.091681   0.050518   0.000000   0.000000
   38  I  1 XZ    0.748359  -0.003292  -0.029515   0.000000   0.000000
   39  I  1 YZ    0.412416   0.014651  -0.122620   0.000000   0.000000

                     36         37         38         39
                    0.8359     1.6625     7.2505   230.1232
                     A          A          A          A   
    1  I  1  S   -0.000000   0.024816  -0.052670  -0.683398
    2  I  1  S   -0.000000  -0.108703   0.356086   3.921982
    3  I  1  X   -0.034069  -0.000000  -0.000000  -0.000000
    4  I  1  Y   -0.053174  -0.000000  -0.000000  -0.000000
    5  I  1  Z   -0.037735  -0.000000  -0.000000  -0.000000
    6  I  1  S   -0.000000   0.250539  -0.168806  20.872736
    7  I  1  X    0.127489  -0.000000  -0.000000  -0.000000
    8  I  1  Y    0.198980  -0.000000  -0.000000  -0.000000
    9  I  1  Z    0.141204  -0.000000  -0.000000  -0.000000
   10  I  1 XX   -0.000000  -0.004381  -0.054667 -10.131522
   11  I  1 YY   -0.000000  -0.004381  -0.054667 -10.131522
   12  I  1 ZZ   -0.000000  -0.004381  -0.054667 -10.131522
   13  I  1 XY   -0.000000  -0.000000  -0.000000  -0.000000
   14  I  1 XZ   -0.000000  -0.000000  -0.000000  -0.000000
   15  I  1 YZ   -0.000000  -0.000000  -0.000000  -0.000000
   16  I  1  S   -0.000000   0.774542  15.564335  -2.759193
   17  I  1  X   -0.310436  -0.000000  -0.000000  -0.000000
   18  I  1  Y   -0.484516  -0.000000  -0.000000  -0.000000
   19  I  1  Z   -0.343833  -0.000000  -0.000000  -0.000000
   20  I  1 XX   -0.000000  -0.996964  -8.223207   1.237916
   21  I  1 YY   -0.000000  -0.996964  -8.223207   1.237916
   22  I  1 ZZ   -0.000000  -0.996964  -8.223207   1.237916
   23  I  1 XY   -0.000000   0.000000  -0.000000  -0.000000
   24  I  1 XZ   -0.000000  -0.000000  -0.000000  -0.000000
   25  I  1 YZ   -0.000000   0.000000  -0.000000  -0.000000
   26  I  1  S   -0.000000   1.790363   6.808211  -0.842634
   27  I  1  X    0.749081  -0.000000  -0.000000  -0.000000
   28  I  1  Y    1.169135  -0.000000  -0.000000  -0.000000
   29  I  1  Z    0.829668  -0.000000  -0.000000  -0.000000
   30  I  1  S   -0.000000   4.013220   2.808238  -0.237492
   31  I  1  X   -0.627751  -0.000000  -0.000000  -0.000000
   32  I  1  Y   -0.979767  -0.000000  -0.000000  -0.000000
   33  I  1  Z   -0.695284  -0.000000  -0.000000  -0.000000
   34  I  1 XX   -0.000000  -2.230216  -2.204890   0.210922
   35  I  1 YY   -0.000000  -2.230216  -2.204890   0.210922
   36  I  1 ZZ   -0.000000  -2.230216  -2.204890   0.210922
   37  I  1 XY   -0.000000  -0.000000  -0.000000  -0.000000
   38  I  1 XZ   -0.000000  -0.000000  -0.000000  -0.000000
   39  I  1 YZ   -0.000000  -0.000000  -0.000000  -0.000000
 ...... END OF RHF CALCULATION ......
 STEP CPU TIME =     0.01 TOTAL CPU TIME =        0.1 (    0.0 MIN)
 TOTAL WALL CLOCK TIME=        0.1 SECONDS, CPU UTILIZATION IS  88.89%

     ----------------------------------------------------------------
     PROPERTY VALUES FOR THE RHF   SELF-CONSISTENT FIELD WAVEFUNCTION
     ----------------------------------------------------------------

          -----------------
          ENERGY COMPONENTS
          -----------------

         WAVEFUNCTION NORMALIZATION =       1.0000000000

                ONE ELECTRON ENERGY =   -9491.5750682482
                TWO ELECTRON ENERGY =    2603.6041418431
           NUCLEAR REPULSION ENERGY =       0.0000000000
                                      ------------------
                       TOTAL ENERGY =   -6887.9709264051

 ELECTRON-ELECTRON POTENTIAL ENERGY =    2603.6041418431
  NUCLEUS-ELECTRON POTENTIAL ENERGY =  -16358.4393591324
   NUCLEUS-NUCLEUS POTENTIAL ENERGY =       0.0000000000
                                      ------------------
             TOTAL POTENTIAL ENERGY =  -13754.8352172893
               TOTAL KINETIC ENERGY =    6866.8642908842
                 VIRIAL RATIO (V/T) =       2.0030736934

          ---------------------------------------
          MULLIKEN AND LOWDIN POPULATION ANALYSES
          ---------------------------------------

     ATOMIC MULLIKEN POPULATION IN EACH MOLECULAR ORBITAL

                      1          2          3          4          5

                  2.000000   2.000000   2.000000   2.000000   2.000000

    1             2.000000   2.000000   2.000000   2.000000   2.000000

                      6          7          8          9         10

                  2.000000   2.000000   2.000000   2.000000   2.000000

    1             2.000000   2.000000   2.000000   2.000000   2.000000

                     11         12         13         14         15

                  2.000000   2.000000   2.000000   2.000000   2.000000

    1             2.000000   2.000000   2.000000   2.000000   2.000000

                     16         17         18         19         20

                  2.000000   2.000000   2.000000   2.000000   2.000000

    1             2.000000   2.000000   2.000000   2.000000   2.000000

                     21         22         23         24         25

                  2.000000   2.000000   2.000000   2.000000   2.000000

    1             2.000000   2.000000   2.000000   2.000000   2.000000

                     26         27

                  2.000000   2.000000

    1             2.000000   2.000000

               ----- POPULATIONS IN EACH AO -----
                             MULLIKEN      LOWDIN
              1  I  1  S      1.98233     1.99701
              2  I  1  S      2.06554     1.95658
              3  I  1  X      1.99934     1.99937
              4  I  1  Y      1.99934     1.99937
              5  I  1  Z      1.99934     1.99937
              6  I  1  S      2.12883     0.91599
              7  I  1  X      1.99903     1.99215
              8  I  1  Y      1.99903     1.99215
              9  I  1  Z      1.99903     1.99215
             10  I  1 XX      1.26955     1.70181
             11  I  1 YY      1.26955     1.70181
             12  I  1 ZZ      1.26955     1.70181
             13  I  1 XY      1.99627     1.99425
             14  I  1 XZ      1.99627     1.99425
             15  I  1 YZ      1.99627     1.99425
             16  I  1  S      2.01510     0.97963
             17  I  1  X      1.98920     1.92068
             18  I  1  Y      1.98920     1.92068
             19  I  1  Z      1.98920     1.92068
             20  I  1 XX      1.33497     1.64247
             21  I  1 YY      1.33497     1.64247
             22  I  1 ZZ      1.33497     1.64247
             23  I  1 XY      1.99718     1.93847
             24  I  1 XZ      1.99718     1.93847
             25  I  1 YZ      1.99718     1.93847
             26  I  1  S      0.85209     0.66232
             27  I  1  X      0.82648     0.89540
             28  I  1  Y      0.82648     0.89540
             29  I  1  Z      0.82648     0.89540
             30  I  1  S      1.04580     0.55529
             31  I  1  X      1.18594     1.19239
             32  I  1  Y      1.18594     1.19239
             33  I  1  Z      1.18594     1.19239
             34  I  1 XX      0.03226     0.30011
             35  I  1 YY      0.03226     0.30011
             36  I  1 ZZ      0.03226     0.30011
             37  I  1 XY      0.00656     0.06729
             38  I  1 XZ      0.00656     0.06729
             39  I  1 YZ      0.00656     0.06729

          ----- MULLIKEN ATOMIC OVERLAP POPULATIONS -----
          (OFF-DIAGONAL ELEMENTS NEED TO BE MULTIPLIED BY 2)

             1

    1   54.0000000

          TOTAL MULLIKEN AND LOWDIN ATOMIC POPULATIONS
       ATOM         MULL.POP.    CHARGE          LOW.POP.     CHARGE
    1 I            54.000000   -1.000000        54.000000   -1.000000

          -------------------------------
          BOND ORDER AND VALENCE ANALYSIS     BOND ORDER THRESHOLD=0.050
          -------------------------------

                   BOND                       BOND                       BOND
  ATOM PAIR DIST  ORDER      ATOM PAIR DIST  ORDER      ATOM PAIR DIST  ORDER

                       TOTAL       BONDED        FREE
      ATOM            VALENCE     VALENCE     VALENCE
    1 I                -0.000       0.000      -0.000

          ---------------------
          ELECTROSTATIC MOMENTS
          ---------------------

 POINT   1           X           Y           Z (BOHR)    CHARGE
                -0.286842   -0.499417    0.000000       -1.00 (A.U.)
         DX          DY          DZ         /D/  (DEBYE)
    -0.000000    0.000000    0.000000    0.000000
 ...... END OF PROPERTY EVALUATION ......
 STEP CPU TIME =     0.01 TOTAL CPU TIME =        0.1 (    0.0 MIN)
 TOTAL WALL CLOCK TIME=        0.1 SECONDS, CPU UTILIZATION IS  90.00%
      580000  WORDS OF DYNAMIC MEMORY USED
 EXECUTION OF GAMESS TERMINATED NORMALLY Mon Nov 14 12:15:36 2011
 DDI: 263224 bytes (0.3 MB / 0 MWords) used by master data server.

 ----------------------------------------
 CPU timing information for all processes
 ========================================
 0: 0.80 + 0.20 = 0.100
 ----------------------------------------
 ddikick.x: exited gracefully.
unset echo
----- accounting info -----
Files used on the master node idhi were:
-rw-r--r-- 1 koushik koushik    201 2011-11-14 12:15 /home/koushik/Desktop/gamess/iodine.F05
-rw-r--r-- 1 koushik koushik 540036 2011-11-14 12:15 /home/koushik/Desktop/gamess/iodine.F08
-rw-r--r-- 1 koushik koushik 948880 2011-11-14 12:15 /home/koushik/Desktop/gamess/iodine.F10
Mon Nov 14 12:15:39 IST 2011
0.0u 0.0s 0:03.18 3.7% 0+0k 0+24io 0pf+0w
