          ******************************************************
          *         GAMESS VERSION =  1 OCT 2010 (R1)          *
          *             FROM IOWA STATE UNIVERSITY             *
          * M.W.SCHMIDT, K.K.BALDRIDGE, J.A.BOATZ, S.T.ELBERT, *
          *   M.S.GORDON, J.H.JENSEN, S.KOSEKI, N.MATSUNAGA,   *
          *          K.A.NGUYEN, S.J.SU, T.L.WINDUS,           *
          *       TOGETHER WITH M.DUPUIS, J.A.MONTGOMERY       *
          *         J.COMPUT.CHEM.  14, 1347-1363(1993)        *
          **************** 32 BIT LINUX VERSION ****************

  SINCE 1993, STUDENTS AND POSTDOCS WORKING AT IOWA STATE UNIVERSITY
  AND ALSO IN THEIR VARIOUS JOBS AFTER LEAVING ISU HAVE MADE IMPORTANT
  CONTRIBUTIONS TO THE CODE:
     IVANA ADAMOVIC, CHRISTINE AIKENS, YURI ALEXEEV, POOJA ARORA,
     ANDREY ASADCHEV, ROB BELL, PRADIPTA BANDYOPADHYAY, JONATHAN BENTZ,
     BRETT BODE, GALINA CHABAN, WEI CHEN, CHEOL HO CHOI, PAUL DAY, TIM DUDLEY,
     DMITRI FEDOROV, GRAHAM FLETCHER, MARK FREITAG, KURT GLAESEMANN, DAN KEMP,
     GRANT MERRILL, NORIYUKI MINEZAWA, JONATHAN MULLIN, TAKESHI NAGATA,
     SEAN NEDD, HEATHER NETZLOFF, BOSILJKA NJEGIC, RYAN OLSON, MIKE PAK,
     JIM SHOEMAKER, LYUDMILA SLIPCHENKO, SAROM SOK, JIE SONG,
     TETSUYA TAKETSUGU, SIMON WEBB, SOOHAENG YOO, FEDERICO ZAHARIEV

  ADDITIONAL CODE HAS BEEN PROVIDED BY COLLABORATORS IN OTHER GROUPS:
     IOWA STATE UNIVERSITY:
          JOE IVANIC, LAIMUTIS BYTAUTAS, KLAUS RUEDENBERG
     UNIVERSITY OF TOKYO: KIMIHIKO HIRAO, TAKAHITO NAKAJIMA,
          TAKAO TSUNEDA, MUNEAKI KAMIYA, SUSUMU YANAGISAWA,
          KIYOSHI YAGI, MAHITO CHIBA, SEIKEN TOKURA, NAOAKI KAWAKAMI
     UNIVERSITY OF AARHUS: FRANK JENSEN
     UNIVERSITY OF IOWA: VISVALDAS KAIRYS, HUI LI
     NATIONAL INST. OF STANDARDS AND TECHNOLOGY: WALT STEVENS, DAVID GARMER
     UNIVERSITY OF PISA: BENEDETTA MENNUCCI, JACOPO TOMASI
     UNIVERSITY OF MEMPHIS: HENRY KURTZ, PRAKASHAN KORAMBATH
     UNIVERSITY OF ALBERTA: TOBY ZENG, MARIUSZ KLOBUKOWSKI
     UNIVERSITY OF NEW ENGLAND: MARK SPACKMAN
     MIE UNIVERSITY: HIROAKI UMEDA
     MICHIGAN STATE UNIVERSITY:
          KAROL KOWALSKI, MARTA WLOCH, JEFFREY GOUR, JESSE LUTZ, PIOTR PIECUCH
     UNIVERSITY OF SILESIA: MONIKA MUSIAL, STANISLAW KUCHARSKI
     FACULTES UNIVERSITAIRES NOTRE-DAME DE LA PAIX:
          OLIVIER QUINET, BENOIT CHAMPAGNE
     UNIVERSITY OF CALIFORNIA - SANTA BARBARA: BERNARD KIRTMAN
     INSTITUTE FOR MOLECULAR SCIENCE:
          KAZUYA ISHIMURA, MICHIO KATOUDA, AND SHIGERU NAGASE
     UNIVERSITY OF NOTRE DAME: DAN CHIPMAN
     KYUSHU UNIVERSITY:
          HARUYUKI NAKANO,
          FENG LONG GU, JACEK KORCHOWIEC, MARCIN MAKOWSKI, AND YURIKO AOKI,
          HIROTOSHI MORI AND EISAKU MIYOSHI
     PENNSYLVANIA STATE UNIVERSITY:
          TZVETELIN IORDANOV, CHET SWALINA, JONATHAN SKONE,
          SHARON HAMMES-SCHIFFER
     WASEDA UNIVERSITY:
          MASATO KOBAYASHI, TOMOKO AKAMA, HIROMI NAKAI
     UNIVERSITY OF NEBRASKA:
          PEIFENG SU, DEJUN SI, YALI WANG, HUI LI
     UNIVERSITY OF ZURICH:
          ROBERTO PEVERATI, KIM BALDRIDGE
     N. COPERNICUS UNIVERSITY AND JACKSON STATE UNIVERSITY:
          MARIA BARYSZ

 EXECUTION OF GAMESS BEGUN Tue Oct  4 13:12:16 2011

            ECHO OF THE FIRST FEW INPUT CARDS -
 INPUT CARD> $CONTRL RUNTYP=ENERGY COORD=UNIQUE UNITS=ANGS $END                             
 INPUT CARD> $BASIS  GBASIS=STO NGAUSS=6 $END                                               
 INPUT CARD> $DATA                                                                          
 INPUT CARD>STO-6G/ Iodomethane single point energy                                         
 INPUT CARD>C1                                                                              
 INPUT CARD>I          53.0   0.2431501568   0.0001512736   0.0000933391                    
 INPUT CARD>C           6.0  -1.8109787185  -0.0000758579  -0.0000319999                    
 INPUT CARD>H           1.0  -2.2003871532   0.2273150958   0.9804672481                    
 INPUT CARD>H           1.0  -2.2002679175  -0.9629461190  -0.2933593598                    
 INPUT CARD>H           1.0  -2.2003620596   0.7353192567  -0.6872710700                    
 INPUT CARD> $END                                                                           
    1000000 WORDS OF MEMORY AVAILABLE

     BASIS OPTIONS
     -------------
     GBASIS=STO          IGAUSS=       6      POLAR=NONE    
     NDFUNC=       0     NFFUNC=       0     DIFFSP=       F
     NPFUNC=       0      DIFFS=       F     BASNAM=        


     RUN TITLE
     ---------
 STO-6G/ Iodomethane single point energy                                         

 THE POINT GROUP OF THE MOLECULE IS C1      
 THE ORDER OF THE PRINCIPAL AXIS IS     0

 ATOM      ATOMIC                      COORDINATES (BOHR)
           CHARGE         X                   Y                   Z
 I          53.0     0.4594871702        0.0002858657        0.0001763853
 C           6.0    -3.4222535476       -0.0001433506       -0.0000604710
 H           1.0    -4.1581287865        0.4295632439        1.8528144388
 H           1.0    -4.1579034637       -1.8197043059       -0.5543688060
 H           1.0    -4.1580813664        1.3895519087       -1.2987540016

          INTERNUCLEAR DISTANCES (ANGS.)
          ------------------------------

                1 I          2 C          3 H          4 H          5 H     

   1 I       0.0000000    2.0541289 *  2.6426523 *  2.6427189 *  2.6426679 *
   2 C       2.0541289 *  0.0000000    1.0792240 *  1.0792155 *  1.0792233 *
   3 H       2.6426523 *  1.0792240 *  0.0000000    1.7433749 *  1.7433930 *
   4 H       2.6427189 *  1.0792155 *  1.7433749 *  0.0000000    1.7433507 *
   5 H       2.6426679 *  1.0792233 *  1.7433930 *  1.7433507 *  0.0000000  

  * ... LESS THAN  3.000


     ATOMIC BASIS SET
     ----------------
 THE CONTRACTED PRIMITIVE FUNCTIONS HAVE BEEN UNNORMALIZED
 THE CONTRACTED BASIS FUNCTIONS ARE NOW NORMALIZED TO UNITY

  SHELL TYPE  PRIMITIVE        EXPONENT          CONTRACTION COEFFICIENT(S)

 I         

      1   S       1         62590.7906703    0.009163596281
      1   S       2         11475.9529545    0.049361492943
      1   S       3          3210.5580839    0.168538304910
      1   S       4          1102.9133528    0.370562799722
      1   S       5           428.2935294    0.416491529825
      1   S       6           176.3949273    0.130334084108

      2   L       7          5534.2108840   -0.013252788090    0.003759696623
      2   L       8          1095.3647634   -0.046991710139    0.037679369843
      2   L       9           340.4385520   -0.033785371509    0.173896743514
      2   L      10           130.9789819    0.250241786092    0.418036434734
      2   L      11            56.8842611    0.595117252581    0.425859547735
      2   L      12            26.0742188    0.240706176292    0.101708295508

      3   L      13           469.7945028   -0.007943126362   -0.007139358907
      3   L      14           125.8151880   -0.071002641720   -0.018292770701
      3   L      15            47.1820323   -0.178502692500    0.076216214285
      3   L      16            21.1195450    0.151063505800    0.414509859729
      3   L      17            10.4509865    0.735491476701    0.488962147134
      3   L      18             5.3860784    0.276059312300    0.105881652107

      4   D      19           379.5212674    0.007283828113
      4   D      20           121.7356481    0.053867993635
      4   D      21            50.5051947    0.207213914918
      4   D      22            23.7800036    0.426626909236
      4   D      23            12.0153180    0.384310020433
      4   D      24             6.1901018    0.089028275468

      5   L      25            96.2493114   -0.007943126362   -0.007139358907
      5   L      26            25.7764302   -0.071002641720   -0.018292770701
      5   L      27             9.6664352   -0.178502692500    0.076216214285
      5   L      28             4.3268741    0.151063505800    0.414509859729
      5   L      29             2.1411495    0.735491476701    0.488962147134
      5   L      30             1.1034747    0.276059312300    0.105881652107

      6   D      31           144.8111768   -0.000474984288
      6   D      32            41.9239601   -0.003566777891
      6   D      33             6.9045584    0.110867048093
      6   D      34             3.4418780    0.415964692974
      6   D      35             1.8449473    0.462167251671
      6   D      36             1.0101351    0.108125019593

      7   L      37             4.5102596    0.012674535247   -0.001105679452
      7   L      38             0.1375311    0.436851214840    0.149314926013
      7   L      39             0.2344053    1.104323071014    0.696457654898
      7   L      40             0.4072213   -0.323200898790    0.321032840925
      7   L      41             0.7624154   -0.430757197893   -0.162847919307
      7   L      42             1.6141820    0.003266709084   -0.062431369065

 C         

      8   S      43           742.7370491    0.009163596281
      8   S      44           136.1800249    0.049361492943
      8   S      45            38.0982635    0.168538304910
      8   S      46            13.0877818    0.370562799722
      8   S      47             5.0823686    0.416491529825
      8   S      48             2.0932001    0.130334084108

      9   L      49            30.4972395   -0.013252788090    0.003759696623
      9   L      50             6.0361996   -0.046991710139    0.037679369843
      9   L      51             1.8760463   -0.033785371509    0.173896743514
      9   L      52             0.7217826    0.250241786092    0.418036434734
      9   L      53             0.3134707    0.595117252581    0.425859547735
      9   L      54             0.1436866    0.240706176292    0.101708295508

 H         

     10   S      55            35.5232212    0.009163596281
     10   S      56             6.5131437    0.049361492943
     10   S      57             1.8221429    0.168538304910
     10   S      58             0.6259553    0.370562799722
     10   S      59             0.2430767    0.416491529825
     10   S      60             0.1001124    0.130334084108

 H         

     11   S      61            35.5232212    0.009163596281
     11   S      62             6.5131437    0.049361492943
     11   S      63             1.8221429    0.168538304910
     11   S      64             0.6259553    0.370562799722
     11   S      65             0.2430767    0.416491529825
     11   S      66             0.1001124    0.130334084108

 H         

     12   S      67            35.5232212    0.009163596281
     12   S      68             6.5131437    0.049361492943
     12   S      69             1.8221429    0.168538304910
     12   S      70             0.6259553    0.370562799722
     12   S      71             0.2430767    0.416491529825
     12   S      72             0.1001124    0.130334084108

 TOTAL NUMBER OF BASIS SET SHELLS             =   12
 NUMBER OF CARTESIAN GAUSSIAN BASIS FUNCTIONS =   37
 NUMBER OF ELECTRONS                          =   62
 CHARGE OF MOLECULE                           =    0
 SPIN MULTIPLICITY                            =    1
 NUMBER OF OCCUPIED ORBITALS (ALPHA)          =   31
 NUMBER OF OCCUPIED ORBITALS (BETA )          =   31
 TOTAL NUMBER OF ATOMS                        =    5
 THE NUCLEAR REPULSION ENERGY IS      123.4971912255

     $CONTRL OPTIONS
     ---------------
 SCFTYP=RHF          RUNTYP=ENERGY       EXETYP=RUN     
 MPLEVL=       0     CITYP =NONE         CCTYP =NONE         VBTYP =NONE    
 DFTTYP=NONE         TDDFT =NONE    
 MULT  =       1     ICHARG=       0     NZVAR =       0     COORD =UNIQUE  
 PP    =NONE         RELWFN=NONE         LOCAL =NONE         NUMGRD=       F
 ISPHER=      -1     NOSYM =       0     MAXIT =      30     UNITS =ANGS    
 PLTORB=       F     MOLPLT=       F     AIMPAC=       F     FRIEND=        
 NPRINT=       7     IREST =       0     GEOM  =INPUT   
 NORMF =       0     NORMP =       0     ITOL  =      20     ICUT  =       9
 INTTYP=BEST         GRDTYP=BEST         QMTTOL= 1.0E-06

     $SYSTEM OPTIONS
     ---------------
  REPLICATED MEMORY=     1000000 WORDS (ON EVERY NODE).
 DISTRIBUTED MEMDDI=           0 MILLION WORDS IN AGGREGATE,
 MEMDDI DISTRIBUTED OVER   1 PROCESSORS IS           0 WORDS/PROCESSOR.
 TOTAL MEMORY REQUESTED ON EACH PROCESSOR=     1000000 WORDS.
 TIMLIM=      525600.00 MINUTES, OR     365.0 DAYS.
 PARALL= F  BALTYP=  DLB     KDIAG=    0  COREFL= F
 MXSEQ2=     300 MXSEQ3=     150

          ----------------
          PROPERTIES INPUT
          ----------------

     MOMENTS            FIELD           POTENTIAL          DENSITY
 IEMOM =       1   IEFLD =       0   IEPOT =       0   IEDEN =       0
 WHERE =COMASS     WHERE =NUCLEI     WHERE =NUCLEI     WHERE =NUCLEI  
 OUTPUT=BOTH       OUTPUT=BOTH       OUTPUT=BOTH       OUTPUT=BOTH    
 IEMINT=       0   IEFINT=       0                     IEDINT=       0
                                                       MORB  =       0
          EXTRAPOLATION IN EFFECT
          SOSCF IN EFFECT
 ORBITAL PRINTING OPTION: NPREO=     1    37     2     1

     -------------------------------
     INTEGRAL TRANSFORMATION OPTIONS
     -------------------------------
     NWORD  =            0
     CUTOFF = 1.0E-09     MPTRAN =       0
     DIRTRF =       F     AOINTS =DUP     

          ----------------------
          INTEGRAL INPUT OPTIONS
          ----------------------
 NOPK  =       1 NORDER=       0 SCHWRZ=       F

     ------------------------------------------
     THE POINT GROUP IS C1 , NAXIS= 0, ORDER= 1
     ------------------------------------------

     DIMENSIONS OF THE SYMMETRY SUBSPACES ARE
 A   =   37

 ..... DONE SETTING UP THE RUN .....
 STEP CPU TIME =     0.01 TOTAL CPU TIME =        0.0 (    0.0 MIN)
 TOTAL WALL CLOCK TIME=        0.0 SECONDS, CPU UTILIZATION IS 100.00%

          ********************
          1 ELECTRON INTEGRALS
          ********************
 ...... END OF ONE-ELECTRON INTEGRALS ......
 STEP CPU TIME =     0.00 TOTAL CPU TIME =        0.0 (    0.0 MIN)
 TOTAL WALL CLOCK TIME=        0.0 SECONDS, CPU UTILIZATION IS  50.00%

          -------------
          GUESS OPTIONS
          -------------
          GUESS =HUCKEL            NORB  =       0          NORDER=       0
          MIX   =       F          PRTMO =       F          PUNMO =       F
          TOLZ  = 1.0E-08          TOLE  = 1.0E-05
          SYMDEN=       F          PURIFY=       F

 INITIAL GUESS ORBITALS GENERATED BY HUCKEL   ROUTINE.
 HUCKEL GUESS REQUIRES     19101 WORDS.

 STATISTICS FOR GENERATION OF SYMMETRY ORBITAL -Q- MATRIX
 NUMBER OF CARTESIAN ATOMIC ORBITALS=         37
 NUMBER OF SPHERICAL CONTAMINANTS DROPPED=     0
 NUMBER OF LINEARLY DEPENDENT MOS DROPPED=     1
 TOTAL NUMBER OF MOS IN VARIATION SPACE=      36

 ...WARNING (SYMORB.SRC)...
 THE INPUT BASIS SET CONTAINS APPROXIMATE LINEAR DEPENDENCE.
 THE SMALLEST EIGENVALUE OF THE OVERLAP MATRIX IS   2.001947E-07
 THERE ARE    1 EIGENVALUES LESS THAN QMTTOL=  1.00E-06
 EIGENVECTORS BELOW -QMTTOL- ARE DROPPED FROM THE MO SPACE,
 IN ORDER TO ELIMINATE THE APPROXIMATE LINEAR DEPENDENCE.

 THIS WILL MOST LIKELY CHANGE THE ENERGY ON THE ORDER OF TENS OF MICROHARTREES,
 DEPENDING ON THE NUMBER OF ORBITALS REMOVED.  THE VALUE OF QMTTOL CAN BE 
 CHANGED IN $CONTRL: JOBS WITH EIGENVALUES BELOW 1.0E-07 PROBABLY WON'T
 CONVERGE.  EIGENVALUES BETWEEN 1.0E-07 AND 1.0E-06 MAY REQUIRE LOOSENING OF
 THE DENSITY CRITERION (CONV IN $SCF), MORE ACCURATE INTEGRAL EVALUATION
 (ICUT=11 IN $CONTRL), MORE ACCURATE DIRECT SCF FOCK MATRIX
 CONSTRUCTION (FDIFF=.FALSE. IN $SCF), OR CHANGING THE SCF CONVERGER
 (DIIS=.TRUE. IN $SCF).

 SYMMETRIES FOR INITIAL GUESS ORBITALS FOLLOW.   BOTH SET(S).
    31 ORBITALS ARE OCCUPIED (   24 CORE ORBITALS).
    25=A       26=A       27=A       28=A       29=A       30=A       31=A   
    32=A       33=A       34=A       35=A       36=A   
 ...... END OF INITIAL ORBITAL SELECTION ......
 STEP CPU TIME =     0.01 TOTAL CPU TIME =        0.0 (    0.0 MIN)
 TOTAL WALL CLOCK TIME=        0.0 SECONDS, CPU UTILIZATION IS  66.67%

                    ----------------------
                    AO INTEGRAL TECHNOLOGY
                    ----------------------
     S,P,L SHELL ROTATED AXIS INTEGRALS, REPROGRAMMED BY
        KAZUYA ISHIMURA (IMS) AND JOSE SIERRA (SYNSTAR).
     S,P,D,L SHELL ROTATED AXIS INTEGRALS PROGRAMMED BY
        KAZUYA ISHIMURA (INSTITUTE FOR MOLECULAR SCIENCE).
     S,P,D,F,G SHELL TO TOTAL QUARTET ANGULAR MOMENTUM SUM 5,
        ERIC PROGRAM BY GRAHAM FLETCHER (ELORET AND NASA ADVANCED
        SUPERCOMPUTING DIVISION, AMES RESEARCH CENTER).
     S,P,D,F,G,L SHELL GENERAL RYS QUADRATURE PROGRAMMED BY
        MICHEL DUPUIS (PACIFIC NORTHWEST NATIONAL LABORATORY).

          --------------------
          2 ELECTRON INTEGRALS
          --------------------

 THE -PK- OPTION IS OFF, THE INTEGRALS ARE NOT IN SUPERMATRIX FORM.
 STORING   15000 INTEGRALS/RECORD ON DISK, USING 12 BYTES/INTEGRAL.
 TWO ELECTRON INTEGRAL EVALUATION REQUIRES   90474 WORDS OF MEMORY.
 II,JST,KST,LST =  1  1  1  1 NREC =         1 INTLOC =    1
 II,JST,KST,LST =  2  1  1  1 NREC =         1 INTLOC =    2
 II,JST,KST,LST =  3  1  1  1 NREC =         1 INTLOC =   34
 II,JST,KST,LST =  4  1  1  1 NREC =         1 INTLOC =  214
 II,JST,KST,LST =  5  1  1  1 NREC =         1 INTLOC = 1189
 II,JST,KST,LST =  6  1  1  1 NREC =         1 INTLOC = 2864
 II,JST,KST,LST =  7  1  1  1 NREC =         1 INTLOC = 7967
 II,JST,KST,LST =  8  1  1  1 NREC =         1 INTLOC =14059
 II,JST,KST,LST =  9  1  1  1 NREC =         2 INTLOC = 1356
 II,JST,KST,LST = 10  1  1  1 NREC =         4 INTLOC =13792
 II,JST,KST,LST = 11  1  1  1 NREC =         6 INTLOC = 3353
 II,JST,KST,LST = 12  1  1  1 NREC =         7 INTLOC = 9774
 TOTAL NUMBER OF NONZERO TWO-ELECTRON INTEGRALS =              123348
          9 INTEGRAL RECORDS WERE STORED ON DISK FILE  8.
  ...... END OF TWO-ELECTRON INTEGRALS .....
 STEP CPU TIME =     0.33 TOTAL CPU TIME =        0.4 (    0.0 MIN)
 TOTAL WALL CLOCK TIME=        0.4 SECONDS, CPU UTILIZATION IS  97.22%

          --------------------------
                 RHF SCF CALCULATION
          --------------------------

     NUCLEAR ENERGY =       123.4971912255
     MAXIT =   30     NPUNCH=    2
     EXTRAP=T  DAMP=F  SHIFT=F  RSTRCT=F  DIIS=F  DEM=F  SOSCF=T
     DENSITY MATRIX CONV=  1.00E-05
     SOSCF WILL OPTIMIZE     155 ORBITAL ROTATIONS, SOGTOL=   0.250
     MEMORY REQUIRED FOR RHF ITERS=     40721 WORDS.

 ITER EX DEM     TOTAL ENERGY        E CHANGE  DENSITY CHANGE     ORB. GRAD
   1  0  0    -6920.7756557306 -6920.7756557306   2.737370253   0.000000000
          ---------------START SECOND ORDER SCF---------------
   2  1  0    -6925.6683594346    -4.8927037041   0.107345209   0.131109379
   3  2  0    -6925.6769560911    -0.0085966565   0.037548923   0.012371360
   4  3  0    -6925.6774176866    -0.0004615955   0.003901691   0.005408513
   5  4  0    -6925.6774337714    -0.0000160847   0.000995584   0.000669436
   6  5  0    -6925.6774341843    -0.0000004129   0.000098026   0.000030906
   7  6  0    -6925.6774341903    -0.0000000060   0.000028514   0.000013919
   8  7  0    -6925.6774341907    -0.0000000004   0.000000884   0.000000472
   9  8  0    -6925.6774341907     0.0000000000   0.000000202   0.000000090

          -----------------
          DENSITY CONVERGED
          -----------------
     TIME TO FORM FOCK OPERATORS=       0.0 SECONDS (       0.0 SEC/ITER)
     TIME TO SOLVE SCF EQUATIONS=       0.0 SECONDS (       0.0 SEC/ITER)

 FINAL RHF ENERGY IS    -6925.6774341907 AFTER   9 ITERATIONS

          ------------
          EIGENVECTORS
          ------------

                      1          2          3          4          5
                -1175.6503  -174.9430  -167.8262  -167.8242  -167.8242
                     A          A          A          A          A   
    1  I  1  S    1.001021  -0.430127  -0.000301  -0.000000  -0.000000
    2  I  1  S   -0.002790   1.007809   0.000716   0.000000   0.000000
    3  I  1  X   -0.000003  -0.000722   1.006814  -0.000124  -0.000056
    4  I  1  Y   -0.000000  -0.000000   0.000119   1.003494  -0.081787
    5  I  1  Z   -0.000000  -0.000000   0.000066   0.081787   1.003494
    6  I  1  S    0.001614   0.074339   0.000026   0.000000   0.000000
    7  I  1  X    0.000004   0.000116  -0.016105   0.000002   0.000001
    8  I  1  Y    0.000000   0.000000  -0.000002  -0.016061   0.001309
    9  I  1  Z    0.000000   0.000000  -0.000001  -0.001309  -0.016061
   10  I  1 XX    0.001025   0.055662  -0.000006   0.000000   0.000000
   11  I  1 YY    0.001023   0.055602   0.000032  -0.000000  -0.000000
   12  I  1 ZZ    0.001023   0.055602   0.000032   0.000000  -0.000000
   13  I  1 XY    0.000000   0.000000  -0.000000  -0.000020   0.000002
   14  I  1 XZ    0.000000   0.000000  -0.000000  -0.000002  -0.000020
   15  I  1 YZ    0.000000   0.000000  -0.000000  -0.000000  -0.000000
   16  I  1  S   -0.006183  -0.264141   0.000029  -0.000000  -0.000000
   17  I  1  X   -0.000005  -0.000195   0.010341  -0.000001  -0.000001
   18  I  1  Y   -0.000000  -0.000000   0.000001   0.010280  -0.000838
   19  I  1  Z   -0.000000  -0.000000   0.000001   0.000838   0.010280
   20  I  1 XX    0.002082   0.087687  -0.000011   0.000000   0.000000
   21  I  1 YY    0.002085   0.087793  -0.000038   0.000000  -0.000000
   22  I  1 ZZ    0.002085   0.087793  -0.000038   0.000000   0.000000
   23  I  1 XY   -0.000000  -0.000000   0.000000   0.000004  -0.000000
   24  I  1 XZ   -0.000000  -0.000000   0.000000   0.000000   0.000004
   25  I  1 YZ    0.000000   0.000000  -0.000000  -0.000000   0.000000
   26  I  1  S   -0.000323  -0.013202   0.000198  -0.000000  -0.000000
   27  I  1  X    0.000031   0.001259  -0.001669   0.000000   0.000000
   28  I  1  Y    0.000000   0.000000  -0.000000  -0.001426   0.000116
   29  I  1  Z    0.000000   0.000000  -0.000000  -0.000116  -0.001426
   30  C  2  S   -0.000006  -0.000249   0.000051   0.000000   0.000000
   31  C  2  S    0.000050   0.002026  -0.000429  -0.000000  -0.000000
   32  C  2  X    0.000046   0.001859  -0.000373  -0.000000  -0.000000
   33  C  2  Y    0.000000   0.000000  -0.000000   0.000118  -0.000010
   34  C  2  Z    0.000000   0.000000  -0.000000   0.000010   0.000118
   35  H  3  S    0.000004   0.000170  -0.000011  -0.000001  -0.000002
   36  H  4  S    0.000004   0.000169  -0.000011   0.000002   0.000000
   37  H  5  S    0.000004   0.000170  -0.000011  -0.000002   0.000002

                      6          7          8          9         10
                  -33.8501   -31.7123   -31.7066   -31.7066   -22.4046
                     A          A          A          A          A   
    1  I  1  S    0.223660   0.001051   0.000000   0.000000  -0.000145
    2  I  1  S   -0.630973  -0.002968  -0.000000  -0.000000   0.000416
    3  I  1  X    0.002592  -0.543652   0.000069   0.000024  -0.000541
    4  I  1  Y    0.000000  -0.000064  -0.536367   0.089452  -0.000000
    5  I  1  Z    0.000000  -0.000035  -0.089452  -0.536367  -0.000000
    6  I  1  S    0.303308   0.001422   0.000000   0.000000  -0.000237
    7  I  1  X   -0.005228   1.086760  -0.000138  -0.000049   0.001119
    8  I  1  Y   -0.000001   0.000128   1.072376  -0.178844   0.000000
    9  I  1  Z   -0.000000   0.000071   0.178844   1.072376   0.000000
   10  I  1 XX    0.226301   0.000081   0.000000   0.000000   0.974156
   11  I  1 YY    0.225534   0.001548  -0.000000   0.000000  -0.487343
   12  I  1 ZZ    0.225534   0.001548   0.000000  -0.000000  -0.487342
   13  I  1 XY    0.000000  -0.000000  -0.000817   0.000136   0.000201
   14  I  1 XZ    0.000000  -0.000000  -0.000136  -0.000817   0.000111
   15  I  1 YZ    0.000000   0.000000  -0.000000  -0.000000  -0.000000
   16  I  1  S    0.830742   0.004384   0.000000   0.000000  -0.000131
   17  I  1  X   -0.000188   0.089999  -0.000011  -0.000004   0.000084
   18  I  1  Y   -0.000000   0.000011   0.088222  -0.014713   0.000000
   19  I  1  Z   -0.000000   0.000006   0.014713   0.088222   0.000000
   20  I  1 XX   -0.256341  -0.001606   0.000000   0.000000   0.069114
   21  I  1 YY   -0.256751  -0.001477  -0.000000  -0.000000  -0.034513
   22  I  1 ZZ   -0.256751  -0.001477   0.000000   0.000000  -0.034513
   23  I  1 XY    0.000000  -0.000000  -0.000164   0.000027   0.000014
   24  I  1 XZ    0.000000  -0.000000  -0.000027  -0.000164   0.000008
   25  I  1 YZ    0.000000   0.000000  -0.000000   0.000000  -0.000000
   26  I  1  S    0.034726   0.001238  -0.000000  -0.000000   0.000503
   27  I  1  X   -0.003227  -0.008911   0.000001   0.000000  -0.000655
   28  I  1  Y   -0.000000  -0.000001  -0.007491   0.001249  -0.000000
   29  I  1  Z   -0.000000  -0.000001  -0.001249  -0.007491  -0.000000
   30  C  2  S    0.000635   0.000262   0.000000   0.000000   0.000182
   31  C  2  S   -0.005303  -0.002279  -0.000000  -0.000000  -0.000964
   32  C  2  X   -0.004834  -0.001975  -0.000000  -0.000000  -0.001148
   33  C  2  Y   -0.000000  -0.000000   0.000606  -0.000101  -0.000000
   34  C  2  Z   -0.000000  -0.000000   0.000101   0.000606  -0.000000
   35  H  3  S   -0.000438  -0.000064  -0.000002  -0.000005   0.000060
   36  H  4  S   -0.000438  -0.000064   0.000006   0.000001   0.000060
   37  H  5  S   -0.000438  -0.000064  -0.000004   0.000005   0.000060

                     11         12         13         14         15
                  -22.4025   -22.4025   -22.3955   -22.3955   -11.1981
                     A          A          A          A          A   
    1  I  1  S    0.000000   0.000000   0.000000  -0.000000   0.000017
    2  I  1  S   -0.000000  -0.000000  -0.000000   0.000000  -0.000062
    3  I  1  X    0.000000   0.000000   0.000000  -0.000000  -0.000027
    4  I  1  Y   -0.000505   0.000088  -0.000000  -0.000000  -0.000000
    5  I  1  Z   -0.000088  -0.000505   0.000000  -0.000000  -0.000000
    6  I  1  S    0.000000   0.000000   0.000000  -0.000000   0.000074
    7  I  1  X   -0.000000  -0.000000  -0.000000   0.000000   0.000086
    8  I  1  Y    0.001084  -0.000189   0.000000   0.000000   0.000000
    9  I  1  Z    0.000189   0.001084  -0.000000   0.000000   0.000000
   10  I  1 XX   -0.000217  -0.000075  -0.000000   0.000001   0.000114
   11  I  1 YY    0.000268   0.000027  -0.583748   0.609368   0.000027
   12  I  1 ZZ   -0.000051   0.000048   0.583748  -0.609369   0.000027
   13  I  1 XY    0.959875  -0.167386   0.000021  -0.000234   0.000000
   14  I  1 XZ    0.167386   0.959875  -0.000021  -0.000047   0.000000
   15  I  1 YZ    0.000153   0.000022   0.703638   0.674054  -0.000000
   16  I  1  S   -0.000000  -0.000000   0.000000  -0.000000  -0.000979
   17  I  1  X    0.000000   0.000000  -0.000000   0.000000  -0.000104
   18  I  1  Y   -0.000085   0.000015  -0.000000  -0.000000  -0.000000
   19  I  1  Z   -0.000015  -0.000085   0.000000  -0.000000  -0.000000
   20  I  1 XX   -0.000015  -0.000005  -0.000000   0.000000   0.000297
   21  I  1 YY    0.000019   0.000002  -0.041284   0.043096   0.000526
   22  I  1 ZZ   -0.000004   0.000003   0.041284  -0.043096   0.000526
   23  I  1 XY    0.067984  -0.011855   0.000001  -0.000017  -0.000000
   24  I  1 XZ    0.011855   0.067984  -0.000001  -0.000003  -0.000000
   25  I  1 YZ    0.000011   0.000002   0.049763   0.047670   0.000000
   26  I  1  S   -0.000000  -0.000000  -0.000000   0.000000  -0.002425
   27  I  1  X    0.000000   0.000000   0.000000  -0.000000   0.002818
   28  I  1  Y   -0.000051   0.000009   0.000000   0.000000   0.000000
   29  I  1  Z   -0.000009  -0.000051  -0.000000   0.000000   0.000000
   30  C  2  S   -0.000000  -0.000000  -0.000000   0.000000   0.995138
   31  C  2  S    0.000000   0.000000   0.000000  -0.000000   0.023719
   32  C  2  X   -0.000000  -0.000000  -0.000000   0.000000  -0.000943
   33  C  2  Y    0.000366  -0.000064  -0.000002  -0.000015  -0.000000
   34  C  2  Z    0.000064   0.000366   0.000015  -0.000002  -0.000000
   35  H  3  S   -0.000045  -0.000106  -0.000022   0.000008  -0.004569
   36  H  4  S    0.000115   0.000014   0.000004  -0.000023  -0.004569
   37  H  5  S   -0.000070   0.000092   0.000018   0.000015  -0.004569

                     16         17         18         19         20
                   -5.7907    -4.3590    -4.3499    -4.3499    -1.5725
                     A          A          A          A          A   
    1  I  1  S   -0.099813  -0.001709  -0.000000  -0.000000   0.000529
    2  I  1  S    0.291599   0.004959   0.000000   0.000000  -0.001637
    3  I  1  X   -0.005193   0.325652  -0.000027  -0.000031   0.001989
    4  I  1  Y   -0.000001   0.000036   0.072359   0.318694   0.000000
    5  I  1  Z   -0.000000   0.000020   0.318694  -0.072359   0.000000
    6  I  1  S   -0.177484  -0.003018  -0.000000  -0.000000   0.001163
    7  I  1  X    0.014942  -0.941429   0.000079   0.000089  -0.005717
    8  I  1  Y    0.000002  -0.000103  -0.209245  -0.921595  -0.000001
    9  I  1  Z    0.000001  -0.000057  -0.921595   0.209245  -0.000000
   10  I  1 XX   -0.133849   0.001949  -0.000000  -0.000001  -0.424380
   11  I  1 YY   -0.131142  -0.004342  -0.000000   0.000001   0.213491
   12  I  1 ZZ   -0.131142  -0.004342   0.000000  -0.000000   0.213490
   13  I  1 XY   -0.000000   0.000001   0.000697   0.003071  -0.000084
   14  I  1 XZ   -0.000000   0.000000   0.003071  -0.000697  -0.000046
   15  I  1 YZ   -0.000000  -0.000000   0.000000  -0.000000   0.000000
   16  I  1  S   -0.332430  -0.007562  -0.000000  -0.000000  -0.003627
   17  I  1  X   -0.019201   1.223295  -0.000103  -0.000115   0.007509
   18  I  1  Y   -0.000002   0.000134   0.272051   1.198214   0.000001
   19  I  1  Z   -0.000001   0.000074   1.198214  -0.272051   0.000000
   20  I  1 XX    0.606771   0.001187   0.000001   0.000001   1.056452
   21  I  1 YY    0.600385   0.016722   0.000000  -0.000001  -0.529301
   22  I  1 ZZ    0.600385   0.016722  -0.000001  -0.000000  -0.529300
   23  I  1 XY    0.000001  -0.000002  -0.001660  -0.007310   0.000208
   24  I  1 XZ    0.000000  -0.000001  -0.007310   0.001660   0.000115
   25  I  1 YZ    0.000000  -0.000000  -0.000001   0.000000  -0.000000
   26  I  1  S   -0.007866  -0.016596  -0.000000  -0.000000  -0.014544
   27  I  1  X   -0.001617   0.156902  -0.000011  -0.000013   0.023611
   28  I  1  Y   -0.000000   0.000017   0.029894   0.131664   0.000003
   29  I  1  Z   -0.000000   0.000010   0.131664  -0.029894   0.000001
   30  C  2  S   -0.000541  -0.003345  -0.000000  -0.000000  -0.014069
   31  C  2  S    0.002283   0.033075   0.000000   0.000000   0.058150
   32  C  2  X    0.002383   0.026672   0.000001   0.000001   0.052346
   33  C  2  Y    0.000000   0.000003  -0.001880  -0.008279   0.000006
   34  C  2  Z    0.000000   0.000002  -0.008279   0.001880   0.000003
   35  H  3  S    0.000009   0.001340  -0.000609  -0.000003   0.000240
   36  H  4  S    0.000009   0.001340   0.000302   0.000528   0.000241
   37  H  5  S    0.000009   0.001340   0.000307  -0.000526   0.000241

                     21         22         23         24         25
                   -1.5647    -1.5647    -1.5486    -1.5486    -0.9405
                     A          A          A          A          A   
    1  I  1  S    0.000000   0.000000  -0.000000  -0.000000   0.006939
    2  I  1  S   -0.000000  -0.000000   0.000000   0.000000  -0.020753
    3  I  1  X   -0.000000  -0.000000  -0.000000  -0.000000   0.016899
    4  I  1  Y    0.002208  -0.000690  -0.000000   0.000001   0.000002
    5  I  1  Z    0.000690   0.002208   0.000001   0.000000   0.000001
    6  I  1  S    0.000000   0.000000  -0.000000  -0.000000   0.013318
    7  I  1  X    0.000001   0.000000   0.000000   0.000000  -0.050116
    8  I  1  Y   -0.006450   0.002015   0.000001  -0.000003  -0.000005
    9  I  1  Z   -0.002015  -0.006450  -0.000003  -0.000001  -0.000003
   10  I  1 XX    0.000094   0.000019   0.000000   0.000000   0.030458
   11  I  1 YY   -0.000212  -0.000060   0.221716   0.295707  -0.000361
   12  I  1 ZZ    0.000118   0.000041  -0.221716  -0.295707  -0.000361
   13  I  1 XY   -0.407325   0.127261   0.000036  -0.000234   0.000004
   14  I  1 XZ   -0.127261  -0.407325  -0.000121  -0.000052   0.000002
   15  I  1 YZ   -0.000141   0.000112  -0.341453   0.256016  -0.000000
   16  I  1  S    0.000000   0.000000   0.000000   0.000000   0.004546
   17  I  1  X   -0.000001  -0.000000  -0.000000  -0.000000   0.070570
   18  I  1  Y    0.008561  -0.002675  -0.000001   0.000003   0.000008
   19  I  1  Z    0.002675   0.008561   0.000003   0.000001   0.000004
   20  I  1 XX   -0.000234  -0.000048  -0.000000  -0.000001  -0.091851
   21  I  1 YY    0.000528   0.000150  -0.551483  -0.735524  -0.013465
   22  I  1 ZZ   -0.000294  -0.000103   0.551483   0.735524  -0.013465
   23  I  1 XY    1.012926  -0.316471  -0.000090   0.000582  -0.000010
   24  I  1 XZ    0.316471   1.012926   0.000300   0.000129  -0.000005
   25  I  1 YZ    0.000352  -0.000278   0.849310  -0.636798   0.000000
   26  I  1  S    0.000000   0.000000   0.000000   0.000000   0.184687
   27  I  1  X   -0.000000  -0.000000  -0.000000  -0.000000  -0.094425
   28  I  1  Y    0.000633  -0.000198  -0.000001   0.000005  -0.000010
   29  I  1  Z    0.000198   0.000633   0.000005   0.000001  -0.000006
   30  C  2  S    0.000000   0.000000   0.000000   0.000000  -0.209300
   31  C  2  S   -0.000000   0.000000  -0.000000  -0.000000   0.635069
   32  C  2  X    0.000002   0.000000   0.000000   0.000000  -0.005949
   33  C  2  Y   -0.016572   0.005178   0.000097  -0.000389   0.000001
   34  C  2  Z   -0.005178  -0.016572  -0.000389  -0.000097  -0.000001
   35  H  3  S    0.000260   0.000443   0.000880   0.000449   0.182478
   36  H  4  S   -0.000514   0.000004  -0.000051  -0.000986   0.182479
   37  H  5  S    0.000254  -0.000447  -0.000828   0.000538   0.182478

                     26         27         28         29         30
                   -0.6233    -0.5570    -0.5570    -0.3816    -0.2589
                     A          A          A          A          A   
    1  I  1  S    0.025040  -0.000002  -0.000002   0.013025  -0.000000
    2  I  1  S   -0.073937   0.000005   0.000006  -0.038015   0.000000
    3  I  1  X    0.013629   0.000001   0.000002  -0.069613   0.000014
    4  I  1  Y    0.000001  -0.001896  -0.015034  -0.000009  -0.093630
    5  I  1  Z    0.000000  -0.015034   0.001896  -0.000005  -0.032801
    6  I  1  S    0.049406  -0.000003  -0.000004   0.026396  -0.000000
    7  I  1  X   -0.040438  -0.000004  -0.000006   0.206929  -0.000042
    8  I  1  Y   -0.000003   0.005635   0.044680   0.000028   0.278583
    9  I  1  Z   -0.000001   0.044680  -0.005636   0.000016   0.097595
   10  I  1 XX    0.044572  -0.000001  -0.000001   0.004589  -0.000000
   11  I  1 YY    0.032870  -0.000251  -0.000160   0.027177   0.000061
   12  I  1 ZZ    0.032870   0.000245   0.000152   0.027177  -0.000061
   13  I  1 XY    0.000001  -0.001049  -0.008316  -0.000003   0.000713
   14  I  1 XZ    0.000000  -0.008316   0.001049  -0.000002   0.000250
   15  I  1 YZ   -0.000000   0.000178  -0.000287  -0.000000   0.000043
   16  I  1  S    0.014065  -0.000001  -0.000001   0.005150  -0.000000
   17  I  1  X    0.056719   0.000006   0.000008  -0.289506   0.000058
   18  I  1  Y    0.000004  -0.007884  -0.062514  -0.000039  -0.388331
   19  I  1  Z    0.000002  -0.062514   0.007885  -0.000022  -0.136042
   20  I  1 XX   -0.152725   0.000005   0.000005  -0.024259   0.000000
   21  I  1 YY   -0.122477   0.000648   0.000413  -0.082919  -0.000157
   22  I  1 ZZ   -0.122477  -0.000627  -0.000388  -0.082919   0.000157
   23  I  1 XY   -0.000003   0.002691   0.021335   0.000008  -0.001902
   24  I  1 XZ   -0.000001   0.021335  -0.002691   0.000005  -0.000666
   25  I  1 YZ    0.000000  -0.000458   0.000738   0.000000  -0.000111
   26  I  1  S    0.854649  -0.000059  -0.000070   0.529198  -0.000001
   27  I  1  X   -0.095042  -0.000012  -0.000016   0.606408  -0.000142
   28  I  1  Y   -0.000005   0.016047   0.127235   0.000083   0.947628
   29  I  1  Z   -0.000002   0.127234  -0.016048   0.000047   0.331978
   30  C  2  S    0.032957  -0.000002  -0.000002   0.035408   0.000001
   31  C  2  S   -0.097860   0.000009   0.000007  -0.182994  -0.000003
   32  C  2  X    0.335667  -0.000046  -0.000060  -0.485242   0.000017
   33  C  2  Y    0.000068   0.072118   0.571798  -0.000028  -0.084363
   34  C  2  Z    0.000042   0.571793  -0.072117  -0.000014  -0.029554
   35  H  3  S   -0.129725   0.467184   0.048040   0.101804  -0.075942
   36  H  4  S   -0.129792  -0.191986  -0.428595   0.101789   0.141739
   37  H  5  S   -0.129744  -0.275177   0.380582   0.101799  -0.065804

                     31         32         33         34         35
                   -0.2589     0.3497     0.6857     0.6857     0.7429
                     A          A          A          A          A   
    1  I  1  S   -0.000000  -0.008969  -0.000000  -0.000000   0.000704
    2  I  1  S    0.000000   0.025659   0.000000   0.000000  -0.001953
    3  I  1  X    0.000002  -0.077399  -0.000002  -0.000001   0.001532
    4  I  1  Y    0.032801  -0.000009   0.006595   0.001709  -0.000001
    5  I  1  Z   -0.093630  -0.000005  -0.001708   0.006594  -0.000001
    6  I  1  S   -0.000000  -0.019077  -0.000000  -0.000000   0.001683
    7  I  1  X   -0.000007   0.230399   0.000005   0.000004  -0.004553
    8  I  1  Y   -0.097595   0.000028  -0.019672  -0.005097   0.000003
    9  I  1  Z    0.278584   0.000015   0.005095  -0.019670   0.000002
   10  I  1 XX   -0.000000   0.014018   0.000002   0.000002   0.000549
   11  I  1 YY    0.000037  -0.028308   0.000167   0.000366   0.001608
   12  I  1 ZZ   -0.000037  -0.028308  -0.000169  -0.000367   0.001608
   13  I  1 XY   -0.000250   0.000006  -0.005178  -0.001342   0.000001
   14  I  1 XZ    0.000713   0.000003   0.001341  -0.005178   0.000001
   15  I  1 YZ   -0.000070   0.000000   0.000423  -0.000195  -0.000000
   16  I  1  S   -0.000000   0.000980  -0.000000  -0.000000  -0.002035
   17  I  1  X    0.000010  -0.318228  -0.000006  -0.000006   0.005971
   18  I  1  Y    0.136042  -0.000038   0.027248   0.007059  -0.000004
   19  I  1  Z   -0.388331  -0.000021  -0.007058   0.027245  -0.000003
   20  I  1 XX    0.000000  -0.037934  -0.000004  -0.000004   0.001069
   21  I  1 YY   -0.000096   0.072425  -0.000436  -0.000958  -0.001829
   22  I  1 ZZ    0.000096   0.072425   0.000442   0.000963  -0.001829
   23  I  1 XY    0.000666  -0.000015   0.013601   0.003524  -0.000002
   24  I  1 XZ   -0.001902  -0.000008  -0.003523   0.013600  -0.000001
   25  I  1 YZ    0.000181  -0.000000  -0.001108   0.000511   0.000000
   26  I  1  S   -0.000000  -0.454336  -0.000005  -0.000003   0.038753
   27  I  1  X   -0.000024   0.953501   0.000023   0.000020  -0.029902
   28  I  1  Y   -0.331977   0.000114  -0.088805  -0.023008   0.000012
   29  I  1  Z    0.947629   0.000063   0.023002  -0.088797   0.000010
   30  C  2  S    0.000000  -0.117121  -0.000021  -0.000029  -0.192216
   31  C  2  S   -0.000001   0.678469   0.000142   0.000196   1.367363
   32  C  2  X    0.000003   0.790706  -0.000115  -0.000138  -0.643996
   33  C  2  Y    0.029556   0.000052   1.068011   0.276682  -0.000200
   34  C  2  Z   -0.084367   0.000028  -0.276681   1.068023  -0.000158
   35  H  3  S   -0.119822  -0.078165   0.025668  -1.006549  -0.758506
   36  H  4  S   -0.005856  -0.078199   0.858657   0.525415  -0.758815
   37  H  5  S    0.125677  -0.078171  -0.884553   0.480820  -0.758623

                     36
                   11.6408
                     A   
    1  I  1  S   -0.250009
    2  I  1  S    0.768206
    3  I  1  X    0.001593
    4  I  1  Y    0.000000
    5  I  1  Z    0.000000
    6  I  1  S   -0.789939
    7  I  1  X   -0.004888
    8  I  1  Y   -0.000001
    9  I  1  Z   -0.000000
   10  I  1 XX   -0.591249
   11  I  1 YY   -0.589481
   12  I  1 ZZ   -0.589481
   13  I  1 XY   -0.000000
   14  I  1 XZ   -0.000000
   15  I  1 YZ   -0.000000
   16  I  1  S    5.417787
   17  I  1  X    0.006963
   18  I  1  Y    0.000001
   19  I  1  Z    0.000000
   20  I  1 XX   -2.005353
   21  I  1 YY   -2.010232
   22  I  1 ZZ   -2.010232
   23  I  1 XY    0.000001
   24  I  1 XZ    0.000000
   25  I  1 YZ    0.000000
   26  I  1  S    0.400599
   27  I  1  X   -0.040114
   28  I  1  Y   -0.000004
   29  I  1  Z   -0.000002
   30  C  2  S    0.008190
   31  C  2  S   -0.063360
   32  C  2  X   -0.059765
   33  C  2  Y   -0.000006
   34  C  2  Z   -0.000003
   35  H  3  S   -0.005340
   36  H  4  S   -0.005338
   37  H  5  S   -0.005340
 ...... END OF RHF CALCULATION ......
 STEP CPU TIME =     0.03 TOTAL CPU TIME =        0.4 (    0.0 MIN)
 TOTAL WALL CLOCK TIME=        0.4 SECONDS, CPU UTILIZATION IS  97.44%

     ----------------------------------------------------------------
     PROPERTY VALUES FOR THE RHF   SELF-CONSISTENT FIELD WAVEFUNCTION
     ----------------------------------------------------------------

          -----------------
          ENERGY COMPONENTS
          -----------------

         WAVEFUNCTION NORMALIZATION =       1.0000000000

                ONE ELECTRON ENERGY =   -9825.4125118961
                TWO ELECTRON ENERGY =    2776.2378864799
           NUCLEAR REPULSION ENERGY =     123.4971912255
                                      ------------------
                       TOTAL ENERGY =   -6925.6774341907

 ELECTRON-ELECTRON POTENTIAL ENERGY =    2776.2378864799
  NUCLEUS-ELECTRON POTENTIAL ENERGY =  -16894.6501966667
   NUCLEUS-NUCLEUS POTENTIAL ENERGY =     123.4971912255
                                      ------------------
             TOTAL POTENTIAL ENERGY =  -13994.9151189613
               TOTAL KINETIC ENERGY =    7069.2376847706
                 VIRIAL RATIO (V/T) =       1.9796922586

          ---------------------------------------
          MULLIKEN AND LOWDIN POPULATION ANALYSES
          ---------------------------------------

     ATOMIC MULLIKEN POPULATION IN EACH MOLECULAR ORBITAL

                      1          2          3          4          5

                  2.000000   2.000000   2.000000   2.000000   2.000000

    1             2.000000   1.999983   2.000000   2.000000   2.000000
    2             0.000000   0.000017   0.000000   0.000000   0.000000
    3             0.000000   0.000000   0.000000  -0.000000  -0.000000
    4             0.000000   0.000000   0.000000  -0.000000  -0.000000
    5             0.000000   0.000000   0.000000  -0.000000  -0.000000

                      6          7          8          9         10

                  2.000000   2.000000   2.000000   2.000000   2.000000

    1             2.000183   1.999972   1.999999   1.999999   2.000004
    2            -0.000178   0.000028   0.000001   0.000001  -0.000004
    3            -0.000001   0.000000  -0.000000  -0.000000   0.000000
    4            -0.000001   0.000000  -0.000000  -0.000000   0.000000
    5            -0.000001   0.000000  -0.000000  -0.000000   0.000000

                     11         12         13         14         15

                  2.000000   2.000000   2.000000   2.000000   2.000000

    1             2.000000   2.000000   2.000000   2.000000  -0.000284
    2            -0.000000  -0.000000  -0.000000  -0.000000   2.002233
    3             0.000000   0.000000  -0.000000  -0.000000  -0.000650
    4             0.000000   0.000000  -0.000000  -0.000000  -0.000650
    5             0.000000   0.000000  -0.000000  -0.000000  -0.000650

                     16         17         18         19         20

                  2.000000   2.000000   2.000000   2.000000   2.000000

    1             1.999607   2.004982   2.000185   2.000185   1.986787
    2             0.000393  -0.004928  -0.000180  -0.000180   0.013187
    3             0.000000  -0.000018  -0.000003  -0.000000   0.000009
    4             0.000000  -0.000018  -0.000001  -0.000003   0.000009
    5             0.000000  -0.000018  -0.000001  -0.000002   0.000009

                     21         22         23         24         25

                  2.000000   2.000000   2.000000   2.000000   2.000000

    1             1.999181   1.999181   1.999997   1.999997   0.194240
    2             0.000832   0.000832  -0.000000  -0.000000   1.176906
    3            -0.000002  -0.000007   0.000001   0.000000   0.209617
    4            -0.000009  -0.000000   0.000000   0.000002   0.209619
    5            -0.000002  -0.000007   0.000001   0.000001   0.209618

                     26         27         28         29         30

                  2.000000   2.000000   2.000000   2.000000   2.000000

    1             1.409925   0.056487   0.056487   1.319957   1.937650
    2             0.430838   1.036299   1.036306   0.611457   0.013753
    3             0.053055   0.598501   0.006328   0.022865   0.009284
    4             0.053111   0.101071   0.503706   0.022858   0.032342
    5             0.053071   0.207642   0.397173   0.022863   0.006971

                     31

                  2.000000

    1             1.937651
    2             0.013754
    3             0.023113
    4             0.000055
    5             0.025427

               ----- POPULATIONS IN EACH AO -----
                             MULLIKEN      LOWDIN
              1  I  1  S      2.00069     1.99597
              2  I  1  S      1.91426     1.93252
              3  I  1  X      2.00030     1.99936
              4  I  1  Y      2.00000     2.00000
              5  I  1  Z      2.00000     2.00000
              6  I  1  S      0.59638     0.68637
              7  I  1  X      1.99454     1.98741
              8  I  1  Y      1.99996     1.99991
              9  I  1  Z      1.99996     1.99991
             10  I  1 XX      1.66431     1.71452
             11  I  1 YY      1.66441     1.71438
             12  I  1 ZZ      1.66441     1.71438
             13  I  1 XY      1.99999     1.99999
             14  I  1 XZ      1.99999     1.99999
             15  I  1 YZ      2.00000     2.00000
             16  I  1  S      0.63909     0.66934
             17  I  1  X      1.95618     1.95229
             18  I  1  Y      1.99969     1.99967
             19  I  1  Z      1.99969     1.99967
             20  I  1 XX      1.95543     1.85677
             21  I  1 YY      1.95206     1.85645
             22  I  1 ZZ      1.95206     1.85645
             23  I  1 XY      1.99980     1.99982
             24  I  1 XZ      1.99980     1.99982
             25  I  1 YZ      2.00000     2.00000
             26  I  1  S      1.88495     1.87170
             27  I  1  X      1.07628     1.11287
             28  I  1  Y      1.99406     1.99392
             29  I  1  Z      1.99406     1.99392
             30  C  2  S      1.99547     1.98891
             31  C  2  S      1.23476     1.05970
             32  C  2  X      0.99972     1.02963
             33  C  2  Y      1.05071     1.07166
             34  C  2  Z      1.05071     1.07165
             35  H  3  S      0.92209     0.95703
             36  H  4  S      0.92209     0.95703
             37  H  5  S      0.92209     0.95703

          ----- MULLIKEN ATOMIC OVERLAP POPULATIONS -----
          (OFF-DIAGONAL ELEMENTS NEED TO BE MULTIPLIED BY 2)

             1           2           3           4           5

    1   52.7149925
    2    0.2531117   4.9249010
    3   -0.0219177   0.3844511   0.6024168
    4   -0.0219132   0.3844515  -0.0214295   0.6024138
    5   -0.0219165   0.3844504  -0.0214281  -0.0214311   0.6024184

          TOTAL MULLIKEN AND LOWDIN ATOMIC POPULATIONS
       ATOM         MULL.POP.    CHARGE          LOW.POP.     CHARGE
    1 I            52.902357    0.097643        52.907366    0.092634
    2 C             6.331366   -0.331366         6.221554   -0.221554
    3 H             0.922093    0.077907         0.957027    0.042973
    4 H             0.922092    0.077908         0.957026    0.042974
    5 H             0.922093    0.077907         0.957027    0.042973

          -------------------------------
          BOND ORDER AND VALENCE ANALYSIS     BOND ORDER THRESHOLD=0.050
          -------------------------------

                   BOND                       BOND                       BOND
  ATOM PAIR DIST  ORDER      ATOM PAIR DIST  ORDER      ATOM PAIR DIST  ORDER
    1   2  2.054  0.991        2   3  1.079  0.982        2   4  1.079  0.982
    2   5  1.079  0.982

                       TOTAL       BONDED        FREE
      ATOM            VALENCE     VALENCE     VALENCE
    1 I                 1.019       1.019       0.000
    2 C                 3.938       3.938       0.000
    3 H                 0.994       0.994      -0.000
    4 H                 0.994       0.994      -0.000
    5 H                 0.994       0.994      -0.000

          ---------------------
          ELECTROSTATIC MOMENTS
          ---------------------

 POINT   1           X           Y           Z (BOHR)    CHARGE
                 0.032919    0.000239    0.000150        0.00 (A.U.)
         DX          DY          DZ         /D/  (DEBYE)
    -1.264060   -0.000137   -0.000082    1.264060
 ...... END OF PROPERTY EVALUATION ......
 STEP CPU TIME =     0.01 TOTAL CPU TIME =        0.4 (    0.0 MIN)
 TOTAL WALL CLOCK TIME=        0.4 SECONDS, CPU UTILIZATION IS  97.50%
      580000  WORDS OF DYNAMIC MEMORY USED
 EXECUTION OF GAMESS TERMINATED NORMALLY Tue Oct  4 13:12:16 2011
 DDI: 263224 bytes (0.3 MB / 0 MWords) used by master data server.

 ----------------------------------------
 CPU timing information for all processes
 ========================================
 0: 0.372 + 0.28 = 0.400
 ----------------------------------------
 ddikick.x: exited gracefully.
unset echo
----- accounting info -----
Files used on the master node idhi were:
-rw-r--r-- 1 koushik koushik     447 2011-10-04 13:12 /home/koushik/Desktop/gamess/iodomethane.F05
-rw-r--r-- 1 koushik koushik 1620108 2011-10-04 13:12 /home/koushik/Desktop/gamess/iodomethane.F08
-rw-r--r-- 1 koushik koushik  916160 2011-10-04 13:12 /home/koushik/Desktop/gamess/iodomethane.F10
Tue Oct  4 13:12:19 IST 2011
0.0u 0.0s 0:03.48 3.7% 0+0k 0+32io 0pf+0w
