          ******************************************************
          *         GAMESS VERSION =  1 OCT 2010 (R1)          *
          *             FROM IOWA STATE UNIVERSITY             *
          * M.W.SCHMIDT, K.K.BALDRIDGE, J.A.BOATZ, S.T.ELBERT, *
          *   M.S.GORDON, J.H.JENSEN, S.KOSEKI, N.MATSUNAGA,   *
          *          K.A.NGUYEN, S.J.SU, T.L.WINDUS,           *
          *       TOGETHER WITH M.DUPUIS, J.A.MONTGOMERY       *
          *         J.COMPUT.CHEM.  14, 1347-1363(1993)        *
          **************** 32 BIT LINUX VERSION ****************

  SINCE 1993, STUDENTS AND POSTDOCS WORKING AT IOWA STATE UNIVERSITY
  AND ALSO IN THEIR VARIOUS JOBS AFTER LEAVING ISU HAVE MADE IMPORTANT
  CONTRIBUTIONS TO THE CODE:
     IVANA ADAMOVIC, CHRISTINE AIKENS, YURI ALEXEEV, POOJA ARORA,
     ANDREY ASADCHEV, ROB BELL, PRADIPTA BANDYOPADHYAY, JONATHAN BENTZ,
     BRETT BODE, GALINA CHABAN, WEI CHEN, CHEOL HO CHOI, PAUL DAY, TIM DUDLEY,
     DMITRI FEDOROV, GRAHAM FLETCHER, MARK FREITAG, KURT GLAESEMANN, DAN KEMP,
     GRANT MERRILL, NORIYUKI MINEZAWA, JONATHAN MULLIN, TAKESHI NAGATA,
     SEAN NEDD, HEATHER NETZLOFF, BOSILJKA NJEGIC, RYAN OLSON, MIKE PAK,
     JIM SHOEMAKER, LYUDMILA SLIPCHENKO, SAROM SOK, JIE SONG,
     TETSUYA TAKETSUGU, SIMON WEBB, SOOHAENG YOO, FEDERICO ZAHARIEV

  ADDITIONAL CODE HAS BEEN PROVIDED BY COLLABORATORS IN OTHER GROUPS:
     IOWA STATE UNIVERSITY:
          JOE IVANIC, LAIMUTIS BYTAUTAS, KLAUS RUEDENBERG
     UNIVERSITY OF TOKYO: KIMIHIKO HIRAO, TAKAHITO NAKAJIMA,
          TAKAO TSUNEDA, MUNEAKI KAMIYA, SUSUMU YANAGISAWA,
          KIYOSHI YAGI, MAHITO CHIBA, SEIKEN TOKURA, NAOAKI KAWAKAMI
     UNIVERSITY OF AARHUS: FRANK JENSEN
     UNIVERSITY OF IOWA: VISVALDAS KAIRYS, HUI LI
     NATIONAL INST. OF STANDARDS AND TECHNOLOGY: WALT STEVENS, DAVID GARMER
     UNIVERSITY OF PISA: BENEDETTA MENNUCCI, JACOPO TOMASI
     UNIVERSITY OF MEMPHIS: HENRY KURTZ, PRAKASHAN KORAMBATH
     UNIVERSITY OF ALBERTA: TOBY ZENG, MARIUSZ KLOBUKOWSKI
     UNIVERSITY OF NEW ENGLAND: MARK SPACKMAN
     MIE UNIVERSITY: HIROAKI UMEDA
     MICHIGAN STATE UNIVERSITY:
          KAROL KOWALSKI, MARTA WLOCH, JEFFREY GOUR, JESSE LUTZ, PIOTR PIECUCH
     UNIVERSITY OF SILESIA: MONIKA MUSIAL, STANISLAW KUCHARSKI
     FACULTES UNIVERSITAIRES NOTRE-DAME DE LA PAIX:
          OLIVIER QUINET, BENOIT CHAMPAGNE
     UNIVERSITY OF CALIFORNIA - SANTA BARBARA: BERNARD KIRTMAN
     INSTITUTE FOR MOLECULAR SCIENCE:
          KAZUYA ISHIMURA, MICHIO KATOUDA, AND SHIGERU NAGASE
     UNIVERSITY OF NOTRE DAME: DAN CHIPMAN
     KYUSHU UNIVERSITY:
          HARUYUKI NAKANO,
          FENG LONG GU, JACEK KORCHOWIEC, MARCIN MAKOWSKI, AND YURIKO AOKI,
          HIROTOSHI MORI AND EISAKU MIYOSHI
     PENNSYLVANIA STATE UNIVERSITY:
          TZVETELIN IORDANOV, CHET SWALINA, JONATHAN SKONE,
          SHARON HAMMES-SCHIFFER
     WASEDA UNIVERSITY:
          MASATO KOBAYASHI, TOMOKO AKAMA, HIROMI NAKAI
     UNIVERSITY OF NEBRASKA:
          PEIFENG SU, DEJUN SI, YALI WANG, HUI LI
     UNIVERSITY OF ZURICH:
          ROBERTO PEVERATI, KIM BALDRIDGE
     N. COPERNICUS UNIVERSITY AND JACKSON STATE UNIVERSITY:
          MARIA BARYSZ

 EXECUTION OF GAMESS BEGUN Tue Oct  4 13:15:40 2011

            ECHO OF THE FIRST FEW INPUT CARDS -
 INPUT CARD> $CONTRL RUNTYP=SADPOINT ICHARG=-1 COORD=ZMT $END                               
 INPUT CARD> $BASIS GBASIS=STO NGAUSS=6 $END                                                
 INPUT CARD> $STATPT HESS=CALC $END                                                         
 INPUT CARD> $HESS HESS=READ $END                                                           
 INPUT CARD> $DATA                                                                          
 INPUT CARD>STO-6G/ Transition point location                                               
 INPUT CARD>C1                                                                              
 INPUT CARD>CL                                                                              
 INPUT CARD>C        1   2.0924838                                                          
 INPUT CARD>H        2   1.0984837    1    96.4848064                                       
 INPUT CARD>H        2   1.0914198    3   117.6331765    1  -100.5036440                    
 INPUT CARD>H        2   1.1038517    3   120.4902123    4  -161.4978174                    
 INPUT CARD>I        2   2.4621277    1   176.6353279    4   153.7361733                    
 INPUT CARD> $END                                                                           
 INPUT CARD>                                                                                
    1000000 WORDS OF MEMORY AVAILABLE

     BASIS OPTIONS
     -------------
     GBASIS=STO          IGAUSS=       6      POLAR=NONE    
     NDFUNC=       0     NFFUNC=       0     DIFFSP=       F
     NPFUNC=       0      DIFFS=       F     BASNAM=        


     RUN TITLE
     ---------
 STO-6G/ Transition point location                                               

 THE POINT GROUP OF THE MOLECULE IS C1      
 THE ORDER OF THE PRINCIPAL AXIS IS     0

 YOUR FULLY SUBSTITUTED Z-MATRIX IS
 CL  
 C      1   2.0924838
 H      2   1.0984837  1   96.4848
 H      2   1.0914198  3  117.6332  1 -100.5036  0
 H      2   1.1038517  3  120.4902  4 -161.4978  0
 I      2   2.4621277  1  176.6353  4  153.7362  0

 THE MOMENTS OF INERTIA ARE (AMU-ANGSTROM**2)
 IXX=     3.671   IYY=   599.214   IZZ=   599.314

 ATOM      ATOMIC                      COORDINATES (BOHR)
           CHARGE         X                   Y                   Z
 CL         17.0     6.5108794494       -0.0223637771        0.0128483116
 C           6.0     2.5589489488        0.0953562811       -0.0523525139
 H           1.0     2.3213874175        1.0170153121        1.7924218905
 H           1.0     2.3987824760        1.2731941018       -1.7378454693
 H           1.0     2.3712293718       -1.9742432845       -0.2335155928
 I          53.0    -2.0923801199       -0.0053637098        0.0028310985

          INTERNUCLEAR DISTANCES (ANGS.)
          ------------------------------

                1 CL         2 C          3 H          4 H          5 H     

   1 CL      0.0000000    2.0924838 *  2.4706987 *  2.4623943 *  2.4254123 *
   2 C       2.0924838 *  0.0000000    1.0984837 *  1.0914198 *  1.1038517 *
   3 H       2.4706987 *  1.0984837 *  0.0000000    1.8734971 *  1.9119735 *
   4 H       2.4623943 *  1.0914198 *  1.8734971 *  0.0000000    1.8939532 *
   5 H       2.4254123 *  1.1038517 *  1.9119735 *  1.8939532 *  0.0000000  
   6 I       4.5526612    2.4621277 *  2.5777634 *  2.6371513 *  2.5846480 *

                6 I     

   1 CL      4.5526612  
   2 C       2.4621277 *
   3 H       2.5777634 *
   4 H       2.6371513 *
   5 H       2.5846480 *
   6 I       0.0000000  

  * ... LESS THAN  3.000


     ATOMIC BASIS SET
     ----------------
 THE CONTRACTED PRIMITIVE FUNCTIONS HAVE BEEN UNNORMALIZED
 THE CONTRACTED BASIS FUNCTIONS ARE NOW NORMALIZED TO UNITY

  SHELL TYPE  PRIMITIVE        EXPONENT          CONTRACTION COEFFICIENT(S)

 CL        

      1   S       1          6236.5455253    0.009163596281
      1   S       2          1143.4637952    0.049361492943
      1   S       3           319.8999635    0.168538304910
      1   S       4           109.8942714    0.370562799722
      1   S       5            42.6751614    0.416491529825
      1   S       6            17.5759881    0.130334084108

      2   L       7           403.9729660   -0.013252788090    0.003759696623
      2   L       8            79.9567927   -0.046991710139    0.037679369843
      2   L       9            24.8505116   -0.033785371509    0.173896743514
      2   L      10             9.5608875    0.250241786092    0.418036434734
      2   L      11             4.1523000    0.595117252581    0.425859547735
      2   L      12             1.9033029    0.240706176292    0.101708295508

      3   L      13            14.1059247   -0.007943126362   -0.007139358907
      3   L      14             3.7776934   -0.071002641720   -0.018292770701
      3   L      15             1.4166751   -0.178502692500    0.076216214285
      3   L      16             0.6341298    0.151063505800    0.414509859729
      3   L      17             0.3137985    0.735491476701    0.488962147134
      3   L      18             0.1617210    0.276059312300    0.105881652107

 C         

      4   S      19           742.7370491    0.009163596281
      4   S      20           136.1800249    0.049361492943
      4   S      21            38.0982635    0.168538304910
      4   S      22            13.0877818    0.370562799722
      4   S      23             5.0823686    0.416491529825
      4   S      24             2.0932001    0.130334084108

      5   L      25            30.4972395   -0.013252788090    0.003759696623
      5   L      26             6.0361996   -0.046991710139    0.037679369843
      5   L      27             1.8760463   -0.033785371509    0.173896743514
      5   L      28             0.7217826    0.250241786092    0.418036434734
      5   L      29             0.3134707    0.595117252581    0.425859547735
      5   L      30             0.1436866    0.240706176292    0.101708295508

 H         

      6   S      31            35.5232212    0.009163596281
      6   S      32             6.5131437    0.049361492943
      6   S      33             1.8221429    0.168538304910
      6   S      34             0.6259553    0.370562799722
      6   S      35             0.2430767    0.416491529825
      6   S      36             0.1001124    0.130334084108

 H         

      7   S      37            35.5232212    0.009163596281
      7   S      38             6.5131437    0.049361492943
      7   S      39             1.8221429    0.168538304910
      7   S      40             0.6259553    0.370562799722
      7   S      41             0.2430767    0.416491529825
      7   S      42             0.1001124    0.130334084108

 H         

      8   S      43            35.5232212    0.009163596281
      8   S      44             6.5131437    0.049361492943
      8   S      45             1.8221429    0.168538304910
      8   S      46             0.6259553    0.370562799722
      8   S      47             0.2430767    0.416491529825
      8   S      48             0.1001124    0.130334084108

 I         

      9   S      49         62590.7906703    0.009163596281
      9   S      50         11475.9529545    0.049361492943
      9   S      51          3210.5580839    0.168538304910
      9   S      52          1102.9133528    0.370562799722
      9   S      53           428.2935294    0.416491529825
      9   S      54           176.3949273    0.130334084108

     10   L      55          5534.2108840   -0.013252788090    0.003759696623
     10   L      56          1095.3647634   -0.046991710139    0.037679369843
     10   L      57           340.4385520   -0.033785371509    0.173896743514
     10   L      58           130.9789819    0.250241786092    0.418036434734
     10   L      59            56.8842611    0.595117252581    0.425859547735
     10   L      60            26.0742188    0.240706176292    0.101708295508

     11   L      61           469.7945028   -0.007943126362   -0.007139358907
     11   L      62           125.8151880   -0.071002641720   -0.018292770701
     11   L      63            47.1820323   -0.178502692500    0.076216214285
     11   L      64            21.1195450    0.151063505800    0.414509859729
     11   L      65            10.4509865    0.735491476701    0.488962147134
     11   L      66             5.3860784    0.276059312300    0.105881652107

     12   D      67           379.5212674    0.007283828113
     12   D      68           121.7356481    0.053867993635
     12   D      69            50.5051947    0.207213914918
     12   D      70            23.7800036    0.426626909236
     12   D      71            12.0153180    0.384310020433
     12   D      72             6.1901018    0.089028275468

     13   L      73            96.2493114   -0.007943126362   -0.007139358907
     13   L      74            25.7764302   -0.071002641720   -0.018292770701
     13   L      75             9.6664352   -0.178502692500    0.076216214285
     13   L      76             4.3268741    0.151063505800    0.414509859729
     13   L      77             2.1411495    0.735491476701    0.488962147134
     13   L      78             1.1034747    0.276059312300    0.105881652107

     14   D      79           144.8111768   -0.000474984288
     14   D      80            41.9239601   -0.003566777891
     14   D      81             6.9045584    0.110867048093
     14   D      82             3.4418780    0.415964692974
     14   D      83             1.8449473    0.462167251671
     14   D      84             1.0101351    0.108125019593

     15   L      85             4.5102596    0.012674535247   -0.001105679452
     15   L      86             0.1375311    0.436851214840    0.149314926013
     15   L      87             0.2344053    1.104323071014    0.696457654898
     15   L      88             0.4072213   -0.323200898790    0.321032840925
     15   L      89             0.7624154   -0.430757197893   -0.162847919307
     15   L      90             1.6141820    0.003266709084   -0.062431369065

 TOTAL NUMBER OF BASIS SET SHELLS             =   15
 NUMBER OF CARTESIAN GAUSSIAN BASIS FUNCTIONS =   46
 NUMBER OF ELECTRONS                          =   80
 CHARGE OF MOLECULE                           =   -1
 SPIN MULTIPLICITY                            =    1
 NUMBER OF OCCUPIED ORBITALS (ALPHA)          =   40
 NUMBER OF OCCUPIED ORBITALS (BETA )          =   40
 TOTAL NUMBER OF ATOMS                        =    6
 THE NUCLEAR REPULSION ENERGY IS      251.7538038850

     $CONTRL OPTIONS
     ---------------
 SCFTYP=RHF          RUNTYP=SADPOINT     EXETYP=RUN     
 MPLEVL=       0     CITYP =NONE         CCTYP =NONE         VBTYP =NONE    
 DFTTYP=NONE         TDDFT =NONE    
 MULT  =       1     ICHARG=      -1     NZVAR =       0     COORD =ZMT     
 PP    =NONE         RELWFN=NONE         LOCAL =NONE         NUMGRD=       F
 ISPHER=      -1     NOSYM =       0     MAXIT =      30     UNITS =ANGS    
 PLTORB=       F     MOLPLT=       F     AIMPAC=       F     FRIEND=        
 NPRINT=       7     IREST =       0     GEOM  =INPUT   
 NORMF =       0     NORMP =       0     ITOL  =      20     ICUT  =       9
 INTTYP=BEST         GRDTYP=BEST         QMTTOL= 1.0E-06

     $SYSTEM OPTIONS
     ---------------
  REPLICATED MEMORY=     1000000 WORDS (ON EVERY NODE).
 DISTRIBUTED MEMDDI=           0 MILLION WORDS IN AGGREGATE,
 MEMDDI DISTRIBUTED OVER   1 PROCESSORS IS           0 WORDS/PROCESSOR.
 TOTAL MEMORY REQUESTED ON EACH PROCESSOR=     1000000 WORDS.
 TIMLIM=      525600.00 MINUTES, OR     365.0 DAYS.
 PARALL= F  BALTYP=  DLB     KDIAG=    0  COREFL= F
 MXSEQ2=     300 MXSEQ3=     150

          ----------------
          PROPERTIES INPUT
          ----------------

     MOMENTS            FIELD           POTENTIAL          DENSITY
 IEMOM =       1   IEFLD =       0   IEPOT =       0   IEDEN =       0
 WHERE =COMASS     WHERE =NUCLEI     WHERE =NUCLEI     WHERE =NUCLEI  
 OUTPUT=BOTH       OUTPUT=BOTH       OUTPUT=BOTH       OUTPUT=BOTH    
 IEMINT=       0   IEFINT=       0                     IEDINT=       0
                                                       MORB  =       0
          EXTRAPOLATION IN EFFECT
          SOSCF IN EFFECT
 ORBITAL PRINTING OPTION: NPREO=     1    46     2     1

     -------------------------------
     INTEGRAL TRANSFORMATION OPTIONS
     -------------------------------
     NWORD  =            0
     CUTOFF = 1.0E-09     MPTRAN =       0
     DIRTRF =       F     AOINTS =DUP     

          ----------------------
          INTEGRAL INPUT OPTIONS
          ----------------------
 NOPK  =       1 NORDER=       0 SCHWRZ=       T

   --- ENCODED Z MATRIX ---
 COORD  TYPE   I   J   K   L   M   N
    1      1    2   1
    2      1    3   2
    3      2    3   2   1
    4      1    4   2
    5      2    4   2   3
    6      3    4   2   3   1
    7      1    5   2
    8      2    5   2   3
    9      3    5   2   3   4
   10      1    6   2
   11      2    6   2   1
   12      3    6   2   1   4

 THE DETERMINANT OF THE G MATRIX IS 10**(    -6)

     ------------------------------------------
     THE POINT GROUP IS C1 , NAXIS= 0, ORDER= 1
     ------------------------------------------

     DIMENSIONS OF THE SYMMETRY SUBSPACES ARE
 A   =   46

 ..... DONE SETTING UP THE RUN .....
 STEP CPU TIME =     0.00 TOTAL CPU TIME =        0.0 (    0.0 MIN)
 TOTAL WALL CLOCK TIME=        0.0 SECONDS, CPU UTILIZATION IS   0.00%


          -----------------------------
          STATIONARY POINT LOCATION RUN
          -----------------------------

 OBTAINING INITIAL HESSIAN, HESS=CALC    

     ---------------------------------
     HESSIAN MATRIX CONTROL PARAMETERS
     ---------------------------------
     METHOD=ANALYTIC   NVIB  =       2   VIBSIZ= 0.01000
     RDHESS=       F   PURIFY=       F   PRTIFC=       F
     VIBANL=       F   DECOMP=       F   PROJCT=       F
     SCLFAC= 1.00000   PRTSCN=       F   NPRT  =       0
     PULCOR=       F   NPUN  =       0   REDOVB=       T

     ------------------------------
     CPHF RESPONSE SOLUTION OPTIONS
     ------------------------------
     POLAR  =       F     NWORD  =       0
     CPHF   =AO      

          ********************
          1 ELECTRON INTEGRALS
          ********************
 ...... END OF ONE-ELECTRON INTEGRALS ......
 STEP CPU TIME =     0.01 TOTAL CPU TIME =        0.0 (    0.0 MIN)
 TOTAL WALL CLOCK TIME=        0.0 SECONDS, CPU UTILIZATION IS  50.00%

          -------------
          GUESS OPTIONS
          -------------
          GUESS =HUCKEL            NORB  =       0          NORDER=       0
          MIX   =       F          PRTMO =       F          PUNMO =       F
          TOLZ  = 1.0E-08          TOLE  = 1.0E-05
          SYMDEN=       F          PURIFY=       F

 INITIAL GUESS ORBITALS GENERATED BY HUCKEL   ROUTINE.
 HUCKEL GUESS REQUIRES     28168 WORDS.

 STATISTICS FOR GENERATION OF SYMMETRY ORBITAL -Q- MATRIX
 NUMBER OF CARTESIAN ATOMIC ORBITALS=         46
 NUMBER OF SPHERICAL CONTAMINANTS DROPPED=     0
 NUMBER OF LINEARLY DEPENDENT MOS DROPPED=     1
 TOTAL NUMBER OF MOS IN VARIATION SPACE=      45

 ...WARNING (SYMORB.SRC)...
 THE INPUT BASIS SET CONTAINS APPROXIMATE LINEAR DEPENDENCE.
 THE SMALLEST EIGENVALUE OF THE OVERLAP MATRIX IS   2.001962E-07
 THERE ARE    1 EIGENVALUES LESS THAN QMTTOL=  1.00E-06
 EIGENVECTORS BELOW -QMTTOL- ARE DROPPED FROM THE MO SPACE,
 IN ORDER TO ELIMINATE THE APPROXIMATE LINEAR DEPENDENCE.

 THIS WILL MOST LIKELY CHANGE THE ENERGY ON THE ORDER OF TENS OF MICROHARTREES,
 DEPENDING ON THE NUMBER OF ORBITALS REMOVED.  THE VALUE OF QMTTOL CAN BE 
 CHANGED IN $CONTRL: JOBS WITH EIGENVALUES BELOW 1.0E-07 PROBABLY WON'T
 CONVERGE.  EIGENVALUES BETWEEN 1.0E-07 AND 1.0E-06 MAY REQUIRE LOOSENING OF
 THE DENSITY CRITERION (CONV IN $SCF), MORE ACCURATE INTEGRAL EVALUATION
 (ICUT=11 IN $CONTRL), MORE ACCURATE DIRECT SCF FOCK MATRIX
 CONSTRUCTION (FDIFF=.FALSE. IN $SCF), OR CHANGING THE SCF CONVERGER
 (DIIS=.TRUE. IN $SCF).

 SYMMETRIES FOR INITIAL GUESS ORBITALS FOLLOW.   BOTH SET(S).
    40 ORBITALS ARE OCCUPIED (   29 CORE ORBITALS).
    30=A       31=A       32=A       33=A       34=A       35=A       36=A   
    37=A       38=A       39=A       40=A       41=A       42=A       43=A   
    44=A       45=A   
 ...... END OF INITIAL ORBITAL SELECTION ......
 STEP CPU TIME =     0.01 TOTAL CPU TIME =        0.0 (    0.0 MIN)
 TOTAL WALL CLOCK TIME=        0.0 SECONDS, CPU UTILIZATION IS  50.00%

                    ----------------------
                    AO INTEGRAL TECHNOLOGY
                    ----------------------
     S,P,L SHELL ROTATED AXIS INTEGRALS, REPROGRAMMED BY
        KAZUYA ISHIMURA (IMS) AND JOSE SIERRA (SYNSTAR).
     S,P,D,L SHELL ROTATED AXIS INTEGRALS PROGRAMMED BY
        KAZUYA ISHIMURA (INSTITUTE FOR MOLECULAR SCIENCE).
     S,P,D,F,G SHELL TO TOTAL QUARTET ANGULAR MOMENTUM SUM 5,
        ERIC PROGRAM BY GRAHAM FLETCHER (ELORET AND NASA ADVANCED
        SUPERCOMPUTING DIVISION, AMES RESEARCH CENTER).
     S,P,D,F,G,L SHELL GENERAL RYS QUADRATURE PROGRAMMED BY
        MICHEL DUPUIS (PACIFIC NORTHWEST NATIONAL LABORATORY).

          --------------------
          2 ELECTRON INTEGRALS
          --------------------

 THE -PK- OPTION IS OFF, THE INTEGRALS ARE NOT IN SUPERMATRIX FORM.
 STORING   15000 INTEGRALS/RECORD ON DISK, USING 12 BYTES/INTEGRAL.
 TWO ELECTRON INTEGRAL EVALUATION REQUIRES   90516 WORDS OF MEMORY.
 SCHWARZ INEQUALITY OVERHEAD:       951 INTEGRALS, T=        0.09
 II,JST,KST,LST =  1  1  1  1 NREC =         1 INTLOC =    1
 II,JST,KST,LST =  2  1  1  1 NREC =         1 INTLOC =    2
 II,JST,KST,LST =  3  1  1  1 NREC =         1 INTLOC =   34
 II,JST,KST,LST =  4  1  1  1 NREC =         1 INTLOC =  214
 II,JST,KST,LST =  5  1  1  1 NREC =         1 INTLOC =  478
 II,JST,KST,LST =  6  1  1  1 NREC =         1 INTLOC = 4164
 II,JST,KST,LST =  7  1  1  1 NREC =         1 INTLOC = 5789
 II,JST,KST,LST =  8  1  1  1 NREC =         1 INTLOC = 7771
 II,JST,KST,LST =  9  1  1  1 NREC =         1 INTLOC =10156
 II,JST,KST,LST = 10  1  1  1 NREC =         1 INTLOC =11149
 II,JST,KST,LST = 11  1  1  1 NREC =         2 INTLOC = 1941
 II,JST,KST,LST = 12  1  1  1 NREC =         2 INTLOC =13305
 II,JST,KST,LST = 13  1  1  1 NREC =         4 INTLOC =12085
 II,JST,KST,LST = 14  1  1  1 NREC =         6 INTLOC =14676
 II,JST,KST,LST = 15  1  1  1 NREC =        11 INTLOC = 9414
 SCHWARZ INEQUALITY TEST SKIPPED        2162 INTEGRAL BLOCKS.
 TOTAL NUMBER OF NONZERO TWO-ELECTRON INTEGRALS =              230687
         16 INTEGRAL RECORDS WERE STORED ON DISK FILE  8.
  ...... END OF TWO-ELECTRON INTEGRALS .....
 STEP CPU TIME =     0.59 TOTAL CPU TIME =        0.6 (    0.0 MIN)
 TOTAL WALL CLOCK TIME=        0.7 SECONDS, CPU UTILIZATION IS  89.71%

          --------------------------
                 RHF SCF CALCULATION
          --------------------------

     NUCLEAR ENERGY =       251.7538038850
     MAXIT =   30     NPUNCH=    2
     EXTRAP=T  DAMP=F  SHIFT=F  RSTRCT=F  DIIS=F  DEM=F  SOSCF=T
     DENSITY MATRIX CONV=  1.00E-05
     SOSCF WILL OPTIMIZE     200 ORBITAL ROTATIONS, SOGTOL=   0.250
     MEMORY REQUIRED FOR RHF ITERS=     46256 WORDS.

 ITER EX DEM     TOTAL ENERGY        E CHANGE  DENSITY CHANGE     ORB. GRAD
   1  0  0    -7378.5685757223 -7378.5685757223   2.743489464   0.000000000
          ---------------START SECOND ORDER SCF---------------
   2  1  0    -7383.4829093198    -4.9143335975   0.110805331   0.136363143
   3  2  0    -7383.4916037045    -0.0086943846   0.040926627   0.011787536
   4  3  0    -7383.4921970778    -0.0005933733   0.006389562   0.008763405
   5  4  0    -7383.4922303015    -0.0000332237   0.001358943   0.001063414
   6  5  0    -7383.4922314277    -0.0000011261   0.000156872   0.000131712
   7  6  0    -7383.4922314584    -0.0000000308   0.000050115   0.000039629
   8  7  0    -7383.4922314596    -0.0000000011   0.000003940   0.000001255
   9  8  0    -7383.4922314596    -0.0000000000   0.000000964   0.000000417

          -----------------
          DENSITY CONVERGED
          -----------------
     TIME TO FORM FOCK OPERATORS=       0.1 SECONDS (       0.0 SEC/ITER)
     TIME TO SOLVE SCF EQUATIONS=       0.0 SECONDS (       0.0 SEC/ITER)

 FINAL RHF ENERGY IS    -7383.4922314596 AFTER   9 ITERATIONS

          ------------
          EIGENVECTORS
          ------------

                      1          2          3          4          5
                -1175.2228  -174.5273  -167.4088  -167.4081  -167.4081
                     A          A          A          A          A   
    1  CL 1  S    0.000000   0.000003   0.000001   0.000000  -0.000000
    2  CL 1  S   -0.000000  -0.000008  -0.000002  -0.000000   0.000000
    3  CL 1  X    0.000000   0.000017   0.000003   0.000000  -0.000000
    4  CL 1  Y   -0.000000  -0.000002  -0.000000   0.000001  -0.000000
    5  CL 1  Z    0.000000   0.000001   0.000000   0.000000   0.000001
    6  CL 1  S    0.000002   0.000072   0.000016   0.000000  -0.000000
    7  CL 1  X   -0.000002  -0.000097  -0.000020  -0.000000   0.000001
    8  CL 1  Y    0.000000   0.000008   0.000001  -0.000004   0.000002
    9  CL 1  Z   -0.000000  -0.000004  -0.000001  -0.000002  -0.000003
   10  C  2  S   -0.000004  -0.000145  -0.000031   0.000000   0.000000
   11  C  2  S    0.000016   0.000640   0.000162  -0.000002  -0.000002
   12  C  2  X   -0.000030  -0.001230  -0.000244   0.000001  -0.000000
   13  C  2  Y   -0.000000  -0.000015  -0.000003   0.000010  -0.000010
   14  C  2  Z   -0.000000  -0.000012  -0.000001   0.000006   0.000016
   15  H  3  S    0.000010   0.000390   0.000045   0.000056   0.000034
   16  H  4  S    0.000008   0.000312   0.000034   0.000003  -0.000052
   17  H  5  S    0.000009   0.000381   0.000043  -0.000057   0.000029
   18  I  6  S    1.001020  -0.430125   0.000143   0.000001  -0.000001
   19  I  6  S   -0.002786   1.007801  -0.000338  -0.000002   0.000003
   20  I  6  X    0.000001   0.000342   1.006180  -0.014915   0.032049
   21  I  6  Y    0.000000   0.000013   0.029669   0.852572  -0.534688
   22  I  6  Z   -0.000000  -0.000008  -0.019219   0.535303   0.852486
   23  I  6  S    0.001612   0.074326  -0.000013  -0.000000   0.000000
   24  I  6  X   -0.000002  -0.000054  -0.016062   0.000238  -0.000512
   25  I  6  Y   -0.000000  -0.000001  -0.000473  -0.013610   0.008535
   26  I  6  Z    0.000000   0.000000   0.000307  -0.008545  -0.013608
   27  I  6 XX    0.001023   0.055623   0.000001  -0.000000   0.000001
   28  I  6 YY    0.001022   0.055607  -0.000016   0.000000  -0.000000
   29  I  6 ZZ    0.001022   0.055606  -0.000016  -0.000000  -0.000000
   30  I  6 XY    0.000000   0.000000   0.000001   0.000008  -0.000005
   31  I  6 XZ   -0.000000  -0.000000  -0.000000   0.000005   0.000008
   32  I  6 YZ    0.000000   0.000000  -0.000000   0.000000   0.000000
   33  I  6  S   -0.006167  -0.263779  -0.000006   0.000001  -0.000002
   34  I  6  X    0.000002   0.000092   0.010309  -0.000153   0.000328
   35  I  6  Y    0.000000   0.000002   0.000304   0.008724  -0.005471
   36  I  6  Z   -0.000000  -0.000000  -0.000197   0.005478   0.008723
   37  I  6 XX    0.002077   0.087577   0.000007  -0.000000   0.000001
   38  I  6 YY    0.002078   0.087600   0.000014  -0.000000   0.000001
   39  I  6 ZZ    0.002078   0.087600   0.000014  -0.000000   0.000001
   40  I  6 XY   -0.000000  -0.000001  -0.000000  -0.000002   0.000001
   41  I  6 XZ    0.000000   0.000000   0.000000  -0.000001  -0.000002
   42  I  6 YZ   -0.000000  -0.000000  -0.000000  -0.000000  -0.000000
   43  I  6  S   -0.000307  -0.012577  -0.000070   0.000000  -0.000001
   44  I  6  X   -0.000012  -0.000481  -0.001507   0.000021  -0.000047
   45  I  6  Y   -0.000000  -0.000009  -0.000044  -0.001205   0.000755
   46  I  6  Z    0.000000   0.000002   0.000028  -0.000756  -0.001204

                      6          7          8          9         10
                 -104.4168   -33.4532   -31.3124   -31.3103   -31.3103
                     A          A          A          A          A   
    1  CL 1  S    0.998249  -0.000008   0.000004   0.000000  -0.000000
    2  CL 1  S    0.005109   0.000020  -0.000009  -0.000000   0.000000
    3  CL 1  X   -0.000037  -0.000041   0.000017   0.000000  -0.000001
    4  CL 1  Y    0.000002   0.000004  -0.000001   0.000004  -0.000002
    5  CL 1  Z   -0.000001  -0.000002   0.000001   0.000002   0.000003
    6  CL 1  S   -0.000427  -0.000185   0.000079   0.000002  -0.000002
    7  CL 1  X    0.000024   0.000245  -0.000100  -0.000002   0.000003
    8  CL 1  Y   -0.000001  -0.000020   0.000007  -0.000019   0.000011
    9  CL 1  Z    0.000000   0.000009  -0.000004  -0.000011  -0.000017
   10  C  2  S   -0.000007   0.000374  -0.000162   0.000001   0.000001
   11  C  2  S    0.000040  -0.001697   0.000860  -0.000008  -0.000013
   12  C  2  X    0.000050   0.003207  -0.001282   0.000003  -0.000001
   13  C  2  Y   -0.000001   0.000040  -0.000016   0.000057  -0.000053
   14  C  2  Z    0.000001   0.000030  -0.000007   0.000033   0.000086
   15  H  3  S    0.000003  -0.001017   0.000244   0.000289   0.000182
   16  H  4  S    0.000003  -0.000815   0.000186   0.000019  -0.000275
   17  H  5  S    0.000004  -0.000994   0.000236  -0.000303   0.000148
   18  I  6  S   -0.000000   0.223619  -0.000523  -0.000003   0.000004
   19  I  6  S    0.000000  -0.630845   0.001475   0.000009  -0.000011
   20  I  6  X   -0.000000  -0.001298  -0.543321   0.008608  -0.017047
   21  I  6  Y   -0.000000  -0.000049  -0.016175  -0.465420   0.280597
   22  I  6  Z    0.000000   0.000027   0.010150  -0.280931  -0.465390
   23  I  6  S   -0.000000   0.303181  -0.000702  -0.000004   0.000006
   24  I  6  X    0.000000   0.002621   1.086067  -0.017208   0.034078
   25  I  6  Y    0.000000   0.000098   0.032334   0.930403  -0.560930
   26  I  6  Z   -0.000000  -0.000054  -0.020289   0.561597   0.930342
   27  I  6 XX   -0.000000   0.225875  -0.000065  -0.000015   0.000027
   28  I  6 YY   -0.000000   0.225607  -0.000751   0.000017  -0.000007
   29  I  6 ZZ   -0.000000   0.225606  -0.000751  -0.000012  -0.000007
   30  I  6 XY   -0.000000   0.000010   0.000027   0.000335  -0.000202
   31  I  6 XZ    0.000000  -0.000006  -0.000016   0.000202   0.000335
   32  I  6 YZ    0.000000   0.000000  -0.000001   0.000000   0.000017
   33  I  6  S    0.000002   0.830899  -0.002210  -0.000010   0.000007
   34  I  6  X   -0.000000   0.000082   0.089979  -0.001422   0.002817
   35  I  6  Y   -0.000000   0.000007   0.002678   0.076891  -0.046356
   36  I  6  Z    0.000000  -0.000005  -0.001680   0.046412   0.076885
   37  I  6 XX   -0.000001  -0.256422   0.000823   0.000001   0.000003
   38  I  6 YY   -0.000001  -0.256533   0.000726   0.000007  -0.000003
   39  I  6 ZZ   -0.000001  -0.256534   0.000726   0.000001  -0.000003
   40  I  6 XY    0.000000   0.000003   0.000004   0.000063  -0.000038
   41  I  6 XZ   -0.000000  -0.000002  -0.000002   0.000038   0.000063
   42  I  6 YZ   -0.000000   0.000000  -0.000000   0.000000   0.000003
   43  I  6  S    0.000002   0.033148  -0.000462   0.000001  -0.000006
   44  I  6  X    0.000003   0.001232  -0.008069   0.000122  -0.000245
   45  I  6  Y    0.000000   0.000022  -0.000235  -0.006513   0.003924
   46  I  6  Z   -0.000000  -0.000005   0.000145  -0.003931  -0.006509

                     11         12         13         14         15
                  -22.0018   -22.0010   -22.0010   -21.9986   -21.9986
                     A          A          A          A          A   
    1  CL 1  S   -0.000002  -0.000000   0.000000   0.000000  -0.000000
    2  CL 1  S    0.000004   0.000000  -0.000000  -0.000000   0.000000
    3  CL 1  X   -0.000007  -0.000000   0.000000  -0.000000  -0.000000
    4  CL 1  Y    0.000000  -0.000001   0.000001   0.000000  -0.000000
    5  CL 1  Z   -0.000000  -0.000001  -0.000001  -0.000000  -0.000000
    6  CL 1  S   -0.000036  -0.000000   0.000000   0.000000  -0.000000
    7  CL 1  X    0.000042   0.000001  -0.000000   0.000000   0.000000
    8  CL 1  Y   -0.000002   0.000005  -0.000003  -0.000000   0.000000
    9  CL 1  Z    0.000001   0.000003   0.000005   0.000000   0.000000
   10  C  2  S    0.000056  -0.000000   0.000000  -0.000000  -0.000000
   11  C  2  S   -0.000274   0.000003   0.000003   0.000002   0.000001
   12  C  2  X    0.000376  -0.000002   0.000004   0.000000  -0.000000
   13  C  2  Y    0.000005  -0.000029   0.000024  -0.000018   0.000012
   14  C  2  Z   -0.000001  -0.000017  -0.000037   0.000011   0.000019
   15  H  3  S    0.000032  -0.000066  -0.000039  -0.000004  -0.000034
   16  H  4  S    0.000037  -0.000003   0.000056   0.000025   0.000011
   17  H  5  S    0.000033   0.000066  -0.000033  -0.000027   0.000020
   18  I  6  S   -0.000050   0.000000  -0.000000  -0.000000  -0.000000
   19  I  6  S    0.000142  -0.000000   0.000000   0.000001   0.000000
   20  I  6  X    0.000267  -0.000002   0.000007   0.000000   0.000000
   21  I  6  Y    0.000007   0.000202  -0.000126   0.000001  -0.000001
   22  I  6  Z   -0.000005   0.000126   0.000202   0.000001   0.000001
   23  I  6  S   -0.000080   0.000000  -0.000000  -0.000000  -0.000000
   24  I  6  X   -0.000562   0.000005  -0.000014  -0.000001  -0.000000
   25  I  6  Y   -0.000015  -0.000433   0.000270  -0.000002   0.000003
   26  I  6  Z    0.000011  -0.000270  -0.000433  -0.000003  -0.000002
   27  I  6 XX    0.972285  -0.025547   0.054968   0.000818  -0.000593
   28  I  6 YY   -0.486339   0.043092  -0.026804   0.595013  -0.596722
   29  I  6 ZZ   -0.486125  -0.017545  -0.028164  -0.595831   0.597314
   30  I  6 XY    0.050782   0.825081  -0.514372  -0.007010   0.034315
   31  I  6 XZ   -0.033039   0.516241   0.824811  -0.034388  -0.007134
   32  I  6 YZ   -0.002163  -0.000743   0.035066   0.689372   0.687533
   33  I  6  S   -0.000073  -0.000000   0.000002  -0.000000  -0.000000
   34  I  6  X    0.000000  -0.000000   0.000001   0.000000  -0.000000
   35  I  6  Y    0.000000   0.000026  -0.000016   0.000000  -0.000000
   36  I  6  Z   -0.000000   0.000016   0.000026  -0.000000   0.000000
   37  I  6 XX    0.069218  -0.001817   0.003910   0.000058  -0.000042
   38  I  6 YY   -0.034579   0.003066  -0.001908   0.042309  -0.042430
   39  I  6 ZZ   -0.034563  -0.001248  -0.002005  -0.042367   0.042473
   40  I  6 XY    0.003614   0.058699  -0.036594  -0.000498   0.002440
   41  I  6 XZ   -0.002351   0.036727   0.058680  -0.002445  -0.000507
   42  I  6 YZ   -0.000154  -0.000053   0.002495   0.049019   0.048888
   43  I  6  S    0.000085  -0.000000   0.000002   0.000000   0.000000
   44  I  6  X    0.000121  -0.000001   0.000003   0.000000   0.000000
   45  I  6  Y    0.000003   0.000013  -0.000008  -0.000001   0.000001
   46  I  6  Z   -0.000002   0.000008   0.000013   0.000001   0.000001

                     16         17         18         19         20
                  -11.0729    -9.8869    -7.4006    -7.3978    -7.3978
                     A          A          A          A          A   
    1  CL 1  S    0.000005  -0.364432  -0.002008   0.000011  -0.000007
    2  CL 1  S   -0.000029   1.053308   0.005901  -0.000033   0.000022
    3  CL 1  X   -0.000180  -0.004692   0.988499   0.032406  -0.026117
    4  CL 1  Y    0.000007   0.000216  -0.037125   0.967660  -0.206364
    5  CL 1  Z   -0.000003  -0.000103   0.018759   0.207161   0.968022
    6  CL 1  S   -0.001353   0.038119  -0.002110  -0.000015   0.000006
    7  CL 1  X    0.001524  -0.002054   0.042342   0.001295  -0.001043
    8  CL 1  Y   -0.000058   0.000066  -0.001575   0.038298  -0.008167
    9  CL 1  Z    0.000023  -0.000038   0.000797   0.008199   0.038308
   10  C  2  S    0.995488   0.000838  -0.001030   0.000002   0.000005
   11  C  2  S    0.021418  -0.003333   0.005685  -0.000034  -0.000027
   12  C  2  X   -0.000555  -0.004085   0.006112  -0.000001   0.000009
   13  C  2  Y    0.000132   0.000087  -0.000135  -0.001175   0.000258
   14  C  2  Z   -0.000088  -0.000075   0.000100  -0.000263  -0.001263
   15  H  3  S   -0.004033  -0.000304   0.000029  -0.000329  -0.000411
   16  H  4  S   -0.004133  -0.000315   0.000039  -0.000212   0.000498
   17  H  5  S   -0.003963  -0.000401   0.000109   0.000709  -0.000089
   18  I  6  S    0.000010   0.000001  -0.000001   0.000000  -0.000000
   19  I  6  S   -0.000035  -0.000005   0.000003  -0.000000   0.000000
   20  I  6  X    0.000021   0.000002  -0.000000   0.000000  -0.000000
   21  I  6  Y    0.000001   0.000000  -0.000000  -0.000001   0.000000
   22  I  6  Z   -0.000001  -0.000000   0.000000  -0.000000  -0.000000
   23  I  6  S    0.000048   0.000006  -0.000007   0.000000  -0.000000
   24  I  6  X   -0.000068  -0.000006   0.000002  -0.000000   0.000000
   25  I  6  Y   -0.000002  -0.000001   0.000000   0.000002  -0.000000
   26  I  6  Z    0.000002   0.000000  -0.000000   0.000000   0.000002
   27  I  6 XX    0.000055   0.000008  -0.000009   0.000000  -0.000000
   28  I  6 YY    0.000027   0.000003  -0.000003   0.000000  -0.000000
   29  I  6 ZZ    0.000027   0.000003  -0.000003   0.000000  -0.000000
   30  I  6 XY    0.000001   0.000000  -0.000000  -0.000001   0.000000
   31  I  6 XZ   -0.000001  -0.000000   0.000000  -0.000000  -0.000001
   32  I  6 YZ   -0.000000  -0.000000   0.000000   0.000000  -0.000000
   33  I  6  S   -0.000583  -0.000076   0.000119  -0.000007   0.000005
   34  I  6  X    0.000099   0.000009  -0.000005   0.000001  -0.000001
   35  I  6  Y    0.000003   0.000001  -0.000001  -0.000004   0.000001
   36  I  6  Z   -0.000003  -0.000001   0.000000  -0.000001  -0.000004
   37  I  6 XX    0.000250   0.000028  -0.000052   0.000003  -0.000002
   38  I  6 YY    0.000320   0.000042  -0.000070   0.000004  -0.000003
   39  I  6 ZZ    0.000320   0.000042  -0.000070   0.000004  -0.000003
   40  I  6 XY   -0.000002  -0.000001   0.000001   0.000002  -0.000000
   41  I  6 XZ    0.000001   0.000000  -0.000000   0.000001   0.000002
   42  I  6 YZ    0.000000   0.000000  -0.000000  -0.000000   0.000000
   43  I  6  S   -0.000985  -0.000152   0.000274  -0.000014   0.000011
   44  I  6  X   -0.001325  -0.000205   0.000357  -0.000017   0.000014
   45  I  6  Y   -0.000035  -0.000016   0.000021   0.000094  -0.000018
   46  I  6  Z    0.000033   0.000008  -0.000010   0.000021   0.000086

                     21         22         23         24         25
                   -5.4268    -3.9882    -3.9838    -3.9838    -1.1975
                     A          A          A          A          A   
    1  CL 1  S    0.000008  -0.000042  -0.000002   0.000003   0.000072
    2  CL 1  S   -0.000020   0.000098   0.000006  -0.000009  -0.000211
    3  CL 1  X    0.000038  -0.000203  -0.000008   0.000013   0.000157
    4  CL 1  Y   -0.000002   0.000021  -0.000068   0.000039  -0.000008
    5  CL 1  Z    0.000001  -0.000011  -0.000040  -0.000061   0.000005
    6  CL 1  S    0.000112  -0.000819  -0.000028   0.000047   0.000950
    7  CL 1  X   -0.000147   0.000985   0.000032  -0.000053  -0.000729
    8  CL 1  Y    0.000009  -0.000086   0.000253  -0.000147   0.000044
    9  CL 1  Z   -0.000004   0.000045   0.000148   0.000229  -0.000026
   10  C  2  S   -0.000214   0.002701  -0.000016  -0.000042  -0.007183
   11  C  2  S    0.000720  -0.013632   0.000116   0.000318   0.025565
   12  C  2  X   -0.001360   0.018440  -0.000044  -0.000212  -0.021016
   13  C  2  Y   -0.000014   0.000263  -0.001138   0.000940  -0.000291
   14  C  2  Z   -0.000011   0.000055  -0.000680  -0.001516   0.000143
   15  H  3  S    0.000225  -0.004302  -0.004366  -0.002691   0.003311
   16  H  4  S    0.000160  -0.003347  -0.000259   0.004244   0.002788
   17  H  5  S    0.000217  -0.004178   0.004560  -0.002229   0.003175
   18  I  6  S   -0.099644   0.000756   0.000004  -0.000011   0.000212
   19  I  6  S    0.291072  -0.002198  -0.000012   0.000031  -0.000639
   20  I  6  X    0.002324   0.325944  -0.005117   0.006341  -0.001013
   21  I  6  Y    0.000084   0.007663   0.278545  -0.170240  -0.000023
   22  I  6  Z   -0.000041  -0.002737   0.170334   0.278582   0.000012
   23  I  6  S   -0.176897   0.001303   0.000008  -0.000020   0.000471
   24  I  6  X   -0.006693  -0.942246   0.014795  -0.018333   0.002940
   25  I  6  Y   -0.000242  -0.022153  -0.805319   0.492192   0.000066
   26  I  6  Z    0.000119   0.007910  -0.492463  -0.805426  -0.000036
   27  I  6 XX   -0.132258  -0.000736   0.000047  -0.000072  -0.425812
   28  I  6 YY   -0.131282   0.001820  -0.000060   0.000016   0.213552
   29  I  6 ZZ   -0.131279   0.001822   0.000031   0.000011   0.213314
   30  I  6 XY   -0.000034  -0.000086  -0.001161   0.000708  -0.020018
   31  I  6 XZ    0.000020   0.000039  -0.000711  -0.001160   0.010738
   32  I  6 YZ   -0.000002   0.000000  -0.000005  -0.000057   0.000872
   33  I  6  S   -0.336432   0.003758   0.000009  -0.000015  -0.001192
   34  I  6  X    0.008620   1.224214  -0.019226   0.023827  -0.003861
   35  I  6  Y    0.000311   0.028782   1.046566  -0.639638  -0.000087
   36  I  6  Z   -0.000153  -0.010276   0.639988   1.046707   0.000046
   37  I  6 XX    0.605317  -0.001267  -0.000122   0.000189   1.058701
   38  I  6 YY    0.603026  -0.007466   0.000134  -0.000020  -0.530112
   39  I  6 ZZ    0.603019  -0.007471  -0.000082  -0.000006  -0.529520
   40  I  6 XY    0.000080   0.000209   0.002767  -0.001687   0.049744
   41  I  6 XZ   -0.000048  -0.000094   0.001694   0.002764  -0.026685
   42  I  6 YZ    0.000004  -0.000001   0.000012   0.000137  -0.002168
   43  I  6  S   -0.005871   0.006377  -0.000008   0.000024  -0.002184
   44  I  6  X    0.000858   0.147278  -0.002198   0.002709  -0.004581
   45  I  6  Y    0.000038   0.003442   0.118714  -0.072517  -0.000107
   46  I  6  Z   -0.000019  -0.001237   0.072599   0.118673   0.000059

                     26         27         28         29         30
                   -1.1950    -1.1950    -1.1891    -1.1891    -0.7701
                     A          A          A          A          A   
    1  CL 1  S    0.000000   0.000000   0.000000   0.000000   0.043797
    2  CL 1  S    0.000000  -0.000002  -0.000000  -0.000000  -0.141725
    3  CL 1  X    0.000002  -0.000002   0.000000  -0.000000   0.024367
    4  CL 1  Y    0.000028  -0.000016   0.000004  -0.000002  -0.000776
    5  CL 1  Z    0.000017   0.000025   0.000002   0.000003   0.000501
    6  CL 1  S    0.000014  -0.000018   0.000003  -0.000002   0.443362
    7  CL 1  X   -0.000017   0.000021  -0.000002   0.000001  -0.070179
    8  CL 1  Y   -0.000157   0.000091  -0.000020   0.000010   0.002297
    9  CL 1  Z   -0.000093  -0.000142  -0.000011  -0.000013  -0.001469
   10  C  2  S    0.000031  -0.000048   0.000002  -0.000012  -0.183878
   11  C  2  S   -0.000161  -0.000013  -0.000005  -0.000035   0.564594
   12  C  2  X    0.000062  -0.000030   0.000013  -0.000017   0.008652
   13  C  2  Y    0.003769  -0.002449  -0.000407   0.000281   0.003360
   14  C  2  Z    0.002293   0.003953  -0.000287  -0.000466  -0.002116
   15  H  3  S    0.004580   0.002894   0.001410   0.000878   0.166527
   16  H  4  S    0.000245  -0.004408   0.000021  -0.001331   0.169624
   17  H  5  S   -0.004736   0.002388  -0.001460   0.000799   0.164877
   18  I  6  S    0.000000  -0.000001  -0.000000   0.000001   0.002402
   19  I  6  S   -0.000001   0.000003   0.000001  -0.000004  -0.007207
   20  I  6  X    0.000009  -0.000018   0.000000  -0.000002  -0.006197
   21  I  6  Y   -0.000869   0.000534   0.000009  -0.000004  -0.000147
   22  I  6  Z   -0.000533  -0.000869   0.000000  -0.000003   0.000065
   23  I  6  S    0.000001  -0.000002  -0.000001   0.000003   0.004584
   24  I  6  X   -0.000025   0.000053  -0.000000   0.000005   0.018362
   25  I  6  Y    0.002538  -0.001560  -0.000027   0.000012   0.000436
   26  I  6  Z    0.001558   0.002540  -0.000001   0.000008  -0.000193
   27  I  6 XX    0.011435  -0.019652   0.000420  -0.000308   0.015286
   28  I  6 YY   -0.017816   0.009644   0.347795  -0.124582  -0.002505
   29  I  6 ZZ    0.006382   0.010003  -0.348217   0.124897  -0.002546
   30  I  6 XY   -0.363505   0.222898  -0.013771  -0.003523   0.000449
   31  I  6 XZ   -0.223517  -0.363460  -0.002414   0.015472  -0.000169
   32  I  6 YZ   -0.000420  -0.015856  -0.144035  -0.401772   0.000041
   33  I  6  S    0.000002  -0.000006   0.000001  -0.000007   0.001496
   34  I  6  X    0.000033  -0.000071   0.000001  -0.000006  -0.025838
   35  I  6  Y   -0.003366   0.002069   0.000037  -0.000016  -0.000612
   36  I  6  Z   -0.002066  -0.003370   0.000001  -0.000010   0.000270
   37  I  6 XX   -0.028419   0.048839  -0.001045   0.000769  -0.043763
   38  I  6 YY    0.044274  -0.023963  -0.864389   0.309632   0.001090
   39  I  6 ZZ   -0.015862  -0.024856   0.865436  -0.310409   0.001194
   40  I  6 XY    0.903359  -0.553933   0.034224   0.008757  -0.001131
   41  I  6 XZ    0.555470   0.903249   0.005998  -0.038454   0.000424
   42  I  6 YZ    0.001045   0.039403   0.357975   0.998539  -0.000103
   43  I  6  S    0.000016  -0.000047  -0.000001  -0.000007   0.057624
   44  I  6  X    0.000025  -0.000048   0.000001  -0.000016   0.030532
   45  I  6  Y   -0.000051   0.000011  -0.000042   0.000026   0.000792
   46  I  6  Z   -0.000035  -0.000023  -0.000024  -0.000037  -0.000417

                     31         32         33         34         35
                   -0.6406    -0.4029    -0.4006    -0.3410    -0.1679
                     A          A          A          A          A   
    1  CL 1  S    0.083781   0.001046   0.000495   0.012250   0.012193
    2  CL 1  S   -0.266268  -0.003208  -0.001534  -0.037632  -0.036974
    3  CL 1  X   -0.004363  -0.002834  -0.000740  -0.045859  -0.184866
    4  CL 1  Y    0.000126  -0.025576   0.004925   0.000261   0.008910
    5  CL 1  Z   -0.000003  -0.004859  -0.025212   0.001015  -0.002757
    6  CL 1  S    0.905998   0.012686   0.005851   0.148292   0.154497
    7  CL 1  X    0.011152   0.009223   0.002473   0.155885   0.661863
    8  CL 1  Y   -0.000309   0.087078  -0.016783  -0.000799  -0.032051
    9  CL 1  Z   -0.000091   0.016540   0.085957  -0.003597   0.009859
   10  C  2  S    0.101570   0.001146   0.001117   0.042570  -0.002191
   11  C  2  S   -0.322384  -0.006016  -0.002298  -0.157666  -0.015093
   12  C  2  X    0.112729   0.002497  -0.018637  -0.186021  -0.456639
   13  C  2  Y   -0.008399   0.555160  -0.105212   0.019670  -0.005014
   14  C  2  Z    0.003149   0.106340   0.554719  -0.033236  -0.009595
   15  H  3  S   -0.120002   0.277116   0.377704  -0.054838   0.054726
   16  H  4  S   -0.121775   0.188163  -0.433770  -0.011220   0.054158
   17  H  5  S   -0.112040  -0.465032   0.049875  -0.055144   0.062482
   18  I  6  S   -0.003126  -0.000774   0.001499   0.027375  -0.009420
   19  I  6  S    0.009312   0.002285  -0.004425  -0.080614   0.027628
   20  I  6  X    0.006880   0.000742  -0.001252  -0.005133  -0.036987
   21  I  6  Y    0.000200  -0.006410   0.001051  -0.000492  -0.000733
   22  I  6  Z   -0.000077  -0.001349  -0.006315   0.000515   0.000636
   23  I  6  S   -0.006003  -0.001509   0.002923   0.053692  -0.018724
   24  I  6  X   -0.020397  -0.002200   0.003716   0.015226   0.109896
   25  I  6  Y   -0.000592   0.019027  -0.003119   0.001460   0.002177
   26  I  6  Z    0.000229   0.004004   0.018746  -0.001529  -0.001888
   27  I  6 XX   -0.012635  -0.001586   0.002866   0.041005  -0.007810
   28  I  6 YY   -0.000391  -0.001304   0.001823   0.039425  -0.016989
   29  I  6 ZZ   -0.000377  -0.000480   0.001837   0.039445  -0.017006
   30  I  6 XY   -0.000389   0.004793  -0.000741   0.000217   0.000217
   31  I  6 XZ    0.000137   0.001035   0.004623  -0.000282  -0.000162
   32  I  6 YZ   -0.000021  -0.000039   0.000681  -0.000042   0.000005
   33  I  6  S   -0.002678  -0.000745   0.001414   0.025006  -0.006854
   34  I  6  X    0.028615   0.003073  -0.005193  -0.021120  -0.153208
   35  I  6  Y    0.000829  -0.026580   0.004355  -0.002033  -0.003034
   36  I  6  Z   -0.000320  -0.005595  -0.026184   0.002132   0.002631
   37  I  6 XX    0.038554   0.005468  -0.010051  -0.151641   0.033407
   38  I  6 YY    0.007562   0.004747  -0.007388  -0.147605   0.056934
   39  I  6 ZZ    0.007526   0.002646  -0.007426  -0.147657   0.056978
   40  I  6 XY    0.000985  -0.012210   0.001887  -0.000553  -0.000557
   41  I  6 XZ   -0.000346  -0.002639  -0.011778   0.000720   0.000414
   42  I  6 YZ    0.000053   0.000099  -0.001736   0.000108  -0.000013
   43  I  6  S   -0.088690  -0.026479   0.051157   0.973694  -0.358209
   44  I  6  X   -0.041546  -0.005601   0.009368   0.045105   0.333953
   45  I  6  Y   -0.001252   0.050434  -0.008388   0.004197   0.006618
   46  I  6  Z    0.000532   0.010533   0.049899  -0.004261  -0.005809

                     36         37         38         39         40
                   -0.0957    -0.0954     0.0031     0.0034     0.0387
                     A          A          A          A          A   
    1  CL 1  S    0.000045  -0.000061  -0.000101  -0.000000   0.005331
    2  CL 1  S   -0.000141   0.000184   0.000294  -0.000001  -0.015755
    3  CL 1  X    0.003144  -0.010558  -0.004494   0.000383   0.151671
    4  CL 1  Y   -0.018128  -0.276198   0.009845  -0.011746  -0.003095
    5  CL 1  Z   -0.276413   0.018025  -0.010799  -0.009950   0.001367
    6  CL 1  S    0.000499  -0.000769  -0.001341  -0.000022   0.070571
    7  CL 1  X   -0.011654   0.039110   0.016697  -0.001392  -0.568500
    8  CL 1  Y    0.067022   1.021110  -0.036986   0.044139   0.011470
    9  CL 1  Z    1.021832  -0.066631   0.040573   0.037390  -0.005093
   10  C  2  S   -0.000230  -0.000687  -0.000127   0.000372   0.040611
   11  C  2  S    0.000914   0.003897  -0.002190  -0.001660  -0.130700
   12  C  2  X   -0.000337  -0.003516   0.005602  -0.000717  -0.092445
   13  C  2  Y   -0.004549  -0.069456   0.051950  -0.065429   0.009412
   14  C  2  Z   -0.064804   0.004251  -0.057821  -0.056072  -0.010366
   15  H  3  S   -0.072365  -0.028749  -0.014071  -0.042104  -0.121074
   16  H  4  S    0.061539  -0.048495   0.052508   0.005866  -0.108481
   17  H  5  S    0.010645   0.074623  -0.022479   0.036160  -0.131783
   18  I  6  S    0.000035  -0.000114   0.000060  -0.000021   0.000676
   19  I  6  S   -0.000102   0.000335  -0.000177   0.000062  -0.001953
   20  I  6  X    0.000301  -0.001136  -0.000118   0.000302  -0.086162
   21  I  6  Y    0.000546   0.005892   0.066850  -0.076458   0.000419
   22  I  6  Z    0.005700  -0.000215  -0.076485  -0.066846  -0.000743
   23  I  6  S    0.000071  -0.000230   0.000123  -0.000042   0.001374
   24  I  6  X   -0.000896   0.003376   0.000354  -0.000898   0.256169
   25  I  6  Y   -0.001622  -0.017513  -0.198782   0.227352  -0.001247
   26  I  6  Z   -0.016944   0.000640   0.227433   0.198771   0.002210
   27  I  6 XX    0.000026  -0.000063   0.000040  -0.000030  -0.000136
   28  I  6 YY    0.000081  -0.000174   0.000100  -0.000001   0.001589
   29  I  6 ZZ    0.000051  -0.000276   0.000135  -0.000063   0.001614
   30  I  6 XY   -0.000055  -0.000547   0.000090  -0.000135   0.000039
   31  I  6 XZ   -0.000529   0.000015  -0.000098  -0.000113  -0.000052
   32  I  6 YZ   -0.000083   0.000026  -0.000038  -0.000020  -0.000024
   33  I  6  S    0.000015  -0.000053  -0.000005  -0.000000   0.000569
   34  I  6  X    0.001248  -0.004702  -0.000497   0.001252  -0.356431
   35  I  6  Y    0.002259   0.024391   0.276753  -0.316528   0.001741
   36  I  6  Z    0.023598  -0.000891  -0.316642  -0.276737  -0.003078
   37  I  6 XX   -0.000101   0.000296  -0.000151   0.000100  -0.000296
   38  I  6 YY   -0.000245   0.000582  -0.000310   0.000028  -0.004691
   39  I  6 ZZ   -0.000167   0.000846  -0.000399   0.000185  -0.004756
   40  I  6 XY    0.000141   0.001403  -0.000250   0.000369  -0.000102
   41  I  6 XZ    0.001358  -0.000040   0.000275   0.000311   0.000136
   42  I  6 YZ    0.000213  -0.000067   0.000100   0.000051   0.000062
   43  I  6  S    0.001390  -0.004404   0.002290  -0.000726   0.029975
   44  I  6  X   -0.002780   0.010644   0.001694  -0.003051   0.856906
   45  I  6  Y   -0.005199  -0.056297  -0.663739   0.759237  -0.004524
   46  I  6  Z   -0.054455   0.002072   0.759403   0.663787   0.007725

                     41         42         43         44         45
                    0.4993     0.7750     0.8719     0.8779    11.9752
                     A          A          A          A          A   
    1  CL 1  S   -0.016396  -0.002988   0.000133  -0.000065  -0.000134
    2  CL 1  S    0.047739   0.008930  -0.000400   0.000229   0.000341
    3  CL 1  X   -0.147007  -0.031279   0.001324  -0.000526  -0.000668
    4  CL 1  Y    0.005637   0.001683  -0.000876   0.004423   0.000056
    5  CL 1  Z   -0.002561   0.000035   0.006145   0.000811  -0.000026
    6  CL 1  S   -0.228967  -0.040926   0.001817  -0.000556  -0.002568
    7  CL 1  X    0.583855   0.127583  -0.005459   0.001898   0.003516
    8  CL 1  Y   -0.022241  -0.006787   0.003614  -0.018396  -0.000271
    9  CL 1  Z    0.010160  -0.000129  -0.025364  -0.003369   0.000126
   10  C  2  S   -0.016419  -0.212643   0.011930  -0.015429   0.004483
   11  C  2  S    0.074325   1.416844  -0.085336   0.111359  -0.019055
   12  C  2  X    0.941651  -0.119895  -0.015296  -0.018862   0.039110
   13  C  2  Y    0.003755  -0.079079  -0.166275   1.113337   0.000464
   14  C  2  Z    0.014715   0.040752   1.110248   0.169908   0.000422
   15  H  3  S   -0.008940  -0.735132  -0.790272  -0.623245  -0.012094
   16  H  4  S   -0.002798  -0.653589   0.948084  -0.495396  -0.009630
   17  H  5  S    0.001652  -0.803249  -0.027923   0.944418  -0.011801
   18  I  6  S    0.005043   0.000013   0.000064  -0.000017  -0.250126
   19  I  6  S   -0.014682  -0.000003  -0.000185   0.000052   0.768430
   20  I  6  X   -0.044458   0.005186  -0.000435   0.000424  -0.000754
   21  I  6  Y   -0.001280   0.000576  -0.000029  -0.002966  -0.000013
   22  I  6  Z    0.000819  -0.000663  -0.002478  -0.000868   0.000003
   23  I  6  S    0.010482   0.000160   0.000136  -0.000029  -0.789721
   24  I  6  X    0.132318  -0.015449   0.001295  -0.001263   0.002304
   25  I  6  Y    0.003809  -0.001715   0.000085   0.008836   0.000039
   26  I  6  Z   -0.002437   0.001974   0.007383   0.002588  -0.000008
   27  I  6 XX   -0.000888   0.003432  -0.000007   0.000207  -0.590209
   28  I  6 YY    0.012150  -0.001603   0.000221   0.000439  -0.589748
   29  I  6 ZZ    0.012146  -0.001470   0.000088  -0.000711  -0.589747
   30  I  6 XY   -0.000386   0.000243  -0.000096  -0.000521  -0.000012
   31  I  6 XZ    0.000235  -0.000248  -0.000341  -0.000235   0.000005
   32  I  6 YZ    0.000005  -0.000116  -0.000660   0.000025  -0.000001
   33  I  6  S   -0.001774  -0.001637  -0.000075  -0.000079   5.409170
   34  I  6  X   -0.183787   0.021509  -0.001797   0.001756  -0.003336
   35  I  6  Y   -0.005292   0.002382  -0.000121  -0.012254  -0.000057
   36  I  6  Z    0.003388  -0.002742  -0.010235  -0.003591   0.000013
   37  I  6 XX    0.000768  -0.007182   0.000040  -0.000444  -2.003111
   38  I  6 YY   -0.032975   0.005875  -0.000555  -0.001052  -2.004342
   39  I  6 ZZ   -0.032966   0.005529  -0.000207   0.001950  -2.004345
   40  I  6 XY    0.000998  -0.000633   0.000250   0.001375   0.000031
   41  I  6 XZ   -0.000606   0.000647   0.000904   0.000616  -0.000014
   42  I  6 YZ   -0.000012   0.000302   0.001723  -0.000065   0.000003
   43  I  6  S    0.211335  -0.001211   0.002699  -0.000890   0.378902
   44  I  6  X    0.496297  -0.060703   0.005258  -0.005153   0.015196
   45  I  6  Y    0.014150  -0.006860   0.000331   0.036157   0.000271
   46  I  6  Z   -0.008976   0.007898   0.030243   0.010581  -0.000070
 ...... END OF RHF CALCULATION ......
 STEP CPU TIME =     0.06 TOTAL CPU TIME =        0.7 (    0.0 MIN)
 TOTAL WALL CLOCK TIME=        0.7 SECONDS, CPU UTILIZATION IS  90.54%

     ----------------------------------------------------------------
     PROPERTY VALUES FOR THE RHF   SELF-CONSISTENT FIELD WAVEFUNCTION
     ----------------------------------------------------------------

          -----------------
          ENERGY COMPONENTS
          -----------------

         WAVEFUNCTION NORMALIZATION =       1.0000000000

                ONE ELECTRON ENERGY =  -10744.1872070749
                TWO ELECTRON ENERGY =    3108.9411717303
           NUCLEAR REPULSION ENERGY =     251.7538038850
                                      ------------------
                       TOTAL ENERGY =   -7383.4922314596

 ELECTRON-ELECTRON POTENTIAL ENERGY =    3108.9411717303
  NUCLEUS-ELECTRON POTENTIAL ENERGY =  -18275.1244832487
   NUCLEUS-NUCLEUS POTENTIAL ENERGY =     251.7538038850
                                      ------------------
             TOTAL POTENTIAL ENERGY =  -14914.4295076334
               TOTAL KINETIC ENERGY =    7530.9372761738
                 VIRIAL RATIO (V/T) =       1.9804214218

          ---------------------------------------
          MULLIKEN AND LOWDIN POPULATION ANALYSES
          ---------------------------------------

     ATOMIC MULLIKEN POPULATION IN EACH MOLECULAR ORBITAL

                      1          2          3          4          5

                  2.000000   2.000000   2.000000   2.000000   2.000000

    1             0.000000   0.000000  -0.000000  -0.000000  -0.000000
    2             0.000000   0.000003   0.000000   0.000000   0.000000
    3             0.000000   0.000000   0.000000   0.000000   0.000000
    4             0.000000   0.000000   0.000000   0.000000   0.000000
    5             0.000000   0.000000   0.000000   0.000000   0.000000
    6             2.000000   1.999996   2.000000   2.000000   2.000000

                      6          7          8          9         10

                  2.000000   2.000000   2.000000   2.000000   2.000000

    1             2.000000  -0.000000  -0.000000  -0.000000  -0.000000
    2             0.000000  -0.000031   0.000005   0.000000   0.000000
    3             0.000000  -0.000004   0.000000   0.000000   0.000000
    4             0.000000  -0.000003   0.000000   0.000000   0.000000
    5             0.000000  -0.000004   0.000000   0.000000   0.000000
    6             0.000000   2.000041   1.999994   2.000000   2.000000

                     11         12         13         14         15

                  2.000000   2.000000   2.000000   2.000000   2.000000

    1            -0.000000  -0.000000  -0.000000  -0.000000  -0.000000
    2            -0.000000  -0.000000  -0.000000  -0.000000   0.000000
    3             0.000000  -0.000000  -0.000000  -0.000000  -0.000000
    4             0.000000  -0.000000  -0.000000  -0.000000  -0.000000
    5             0.000000  -0.000000  -0.000000  -0.000000  -0.000000
    6             2.000000   2.000000   2.000000   2.000000   2.000000

                     16         17         18         19         20

                  2.000000   2.000000   2.000000   2.000000   2.000000

    1            -0.000057   2.000248   2.000223   2.000007   2.000007
    2             2.001748  -0.000238  -0.000222  -0.000005  -0.000005
    3            -0.000547  -0.000003  -0.000000  -0.000000  -0.000001
    4            -0.000570  -0.000003  -0.000000  -0.000000  -0.000001
    5            -0.000531  -0.000004  -0.000001  -0.000002  -0.000000
    6            -0.000043  -0.000000  -0.000000  -0.000000  -0.000000

                     21         22         23         24         25

                  2.000000   2.000000   2.000000   2.000000   2.000000

    1             0.000000  -0.000000  -0.000000  -0.000000   0.000004
    2             0.000065  -0.001086  -0.000008  -0.000011   0.002800
    3             0.000004  -0.000066  -0.000029  -0.000011   0.000124
    4             0.000003  -0.000045  -0.000000  -0.000028   0.000099
    5             0.000004  -0.000063  -0.000032  -0.000008   0.000117
    6             1.999924   2.001259   2.000068   2.000058   1.996856

                     26         27         28         29         30

                  2.000000   2.000000   2.000000   2.000000   2.000000

    1            -0.000000  -0.000000  -0.000000  -0.000000   0.491823
    2             0.000090   0.000092  -0.000001  -0.000000   0.958932
    3             0.000066   0.000027   0.000004   0.000002   0.171907
    4             0.000000   0.000065   0.000000   0.000003   0.177542
    5             0.000072   0.000019   0.000004   0.000001   0.169421
    6             1.999772   1.999797   1.999992   1.999994   0.030374

                     31         32         33         34         35

                  2.000000   2.000000   2.000000   2.000000   2.000000

    1             1.464645   0.025651   0.024486   0.092646   0.968425
    2             0.307014   1.016733   1.014310   0.157552   0.540481
    3             0.064391   0.219953   0.406424   0.005612   0.005688
    4             0.065902   0.100551   0.530353  -0.000042   0.005478
    5             0.055933   0.623547   0.007186   0.005759   0.007365
    6             0.042115   0.013564   0.017241   1.738473   0.472563

                     36         37         38         39         40

                  2.000000   2.000000   2.000000   2.000000   2.000000

    1             1.969919   1.968642   0.005453   0.005508   0.540558
    2             0.008176   0.009364   0.009487   0.011621   0.034613
    3             0.008667   0.001371   0.000209   0.001965   0.017747
    4             0.006207   0.003860   0.003284   0.000042   0.014333
    5             0.000189   0.009248   0.000541   0.001466   0.021375
    6             0.006843   0.007516   1.981026   1.979398   1.371374

               ----- POPULATIONS IN EACH AO -----
                             MULLIKEN      LOWDIN
              1  CL 1  S      2.00000     1.99994
              2  CL 1  S      1.99951     1.99924
              3  CL 1  X      1.99415     1.98855
              4  CL 1  Y      1.99999     1.99997
              5  CL 1  Z      1.99999     1.99998
              6  CL 1  S      1.97793     1.96741
              7  CL 1  X      1.58827     1.59044
              8  CL 1  Y      1.99905     1.99906
              9  CL 1  Z      1.99931     1.99931
             10  C  2  S      1.99605     1.98952
             11  C  2  S      1.24725     1.09421
             12  C  2  X      0.75452     0.78341
             13  C  2  Y      1.03784     1.05562
             14  C  2  Z      1.03582     1.05538
             15  H  3  S      0.90350     0.94243
             16  H  4  S      0.90703     0.94587
             17  H  5  S      0.90160     0.94085
             18  I  6  S      2.00069     1.99597
             19  I  6  S      1.91421     1.93240
             20  I  6  X      2.00010     1.99978
             21  I  6  Y      2.00000     2.00000
             22  I  6  Z      2.00000     2.00000
             23  I  6  S      0.59609     0.68626
             24  I  6  X      1.99817     1.99567
             25  I  6  Y      1.99999     1.99998
             26  I  6  Z      1.99999     1.99998
             27  I  6 XX      1.66425     1.71449
             28  I  6 YY      1.66430     1.71448
             29  I  6 ZZ      1.66430     1.71448
             30  I  6 XY      2.00000     2.00000
             31  I  6 XZ      2.00000     2.00000
             32  I  6 YZ      2.00000     2.00000
             33  I  6  S      0.63320     0.66855
             34  I  6  X      1.98509     1.98313
             35  I  6  Y      1.99992     1.99992
             36  I  6  Z      1.99994     1.99994
             37  I  6 XX      1.95771     1.85931
             38  I  6 YY      1.95630     1.85869
             39  I  6 ZZ      1.95630     1.85869
             40  I  6 XY      2.00000     2.00000
             41  I  6 XZ      2.00000     2.00000
             42  I  6 YZ      2.00000     2.00000
             43  I  6  S      1.96200     1.96041
             44  I  6  X      1.70751     1.70853
             45  I  6  Y      1.99891     1.99892
             46  I  6  Z      1.99922     1.99923

          ----- MULLIKEN ATOMIC OVERLAP POPULATIONS -----
          (OFF-DIAGONAL ELEMENTS NEED TO BE MULTIPLIED BY 2)

             1           2           3           4           5

    1   17.5257466
    2    0.0906324   4.7428029
    3   -0.0192972   0.3988615   0.5807721
    4   -0.0189034   0.3981979  -0.0164499   0.5819948
    5   -0.0220768   0.3994737  -0.0140203  -0.0150781   0.5807763
    6    0.0020863   0.0415106  -0.0263642  -0.0227309  -0.0274716

             6

    6   53.6911674

          TOTAL MULLIKEN AND LOWDIN ATOMIC POPULATIONS
       ATOM         MULL.POP.    CHARGE          LOW.POP.     CHARGE
    1 CL           17.558188   -0.558188        17.543916   -0.543916
    2 C             6.071479   -0.071479         5.978134    0.021866
    3 H             0.903502    0.096498         0.942429    0.057571
    4 H             0.907030    0.092970         0.945865    0.054135
    5 H             0.901603    0.098397         0.940849    0.059151
    6 I            53.658198   -0.658198        53.648806   -0.648806

          -------------------------------
          BOND ORDER AND VALENCE ANALYSIS     BOND ORDER THRESHOLD=0.050
          -------------------------------

                   BOND                       BOND                       BOND
  ATOM PAIR DIST  ORDER      ATOM PAIR DIST  ORDER      ATOM PAIR DIST  ORDER
    1   2  2.092  0.533        1   6  4.553  0.135        2   3  1.098  0.974
    2   4  1.091  0.975        2   5  1.104  0.973        2   6  2.462  0.425

                       TOTAL       BONDED        FREE
      ATOM            VALENCE     VALENCE     VALENCE
    1 CL                0.689       0.689      -0.000
    2 C                 3.879       3.879      -0.000
    3 H                 0.991       0.991       0.000
    4 H                 0.991       0.991      -0.000
    5 H                 0.990       0.990      -0.000
    6 I                 0.568       0.568       0.000

          ---------------------
          ELECTROSTATIC MOMENTS
          ---------------------

 POINT   1           X           Y           Z (BOHR)    CHARGE
                -0.000000   -0.000000    0.000000       -1.00 (A.U.)
         DX          DY          DZ         /D/  (DEBYE)
    -4.219119    0.112769   -0.062377    4.221087
 ...... END OF PROPERTY EVALUATION ......
 STEP CPU TIME =     0.01 TOTAL CPU TIME =        0.7 (    0.0 MIN)
 TOTAL WALL CLOCK TIME=        0.8 SECONDS, CPU UTILIZATION IS  90.67%

     ---------------------------------------------
     1ST AND 2ND INTEGRAL DERIVATIVE CONTRIBUTIONS
     ---------------------------------------------
 ...... END OF 1-ELECTRON GRAD+HESS+FOCKDER ......
 STEP CPU TIME =     0.25 TOTAL CPU TIME =        0.9 (    0.0 MIN)
 TOTAL WALL CLOCK TIME=        1.0 SECONDS, CPU UTILIZATION IS  92.08%

     ----------------------------------------------
     TWO ELECTRON INTEGRAL DERIVATIVE CONTRIBUTIONS
     ----------------------------------------------

      35903 WORDS REQUIRED,    999563 WORDS AVAILABLE
 THE COARSE/FINE SCHWARZ SCREENINGS SKIPPED       2053/       134 BLOCKS.
 THE NUMBER OF DERIVATIVE INTEGRAL BLOCKS COMPUTED WAS      4637
 STEP CPU TIME =    62.10 TOTAL CPU TIME =       63.0 (    1.1 MIN)
 TOTAL WALL CLOCK TIME=       63.9 SECONDS, CPU UTILIZATION IS  98.65%
 ...... END OF 2-ELECTRON GRAD+HESS+FOCKDER ......
 STEP CPU TIME =     0.00 TOTAL CPU TIME =       63.0 (    1.1 MIN)
 TOTAL WALL CLOCK TIME=       63.9 SECONDS, CPU UTILIZATION IS  98.65%

     -------------------------------------------
     COUPLED-PERTURBED CLOSED SHELL HARTREE-FOCK
     -------------------------------------------
 THE CPHF HAS     200 INDEPENDENT ORBITAL ROTATIONS.
 SOLVING FOR   18 NUCLEAR RESPONSES AND 0 ELECTRIC FIELD RESPONSES
           -FA- WILL USE     37768 WORDS,
           -TA- WILL USE     66971 WORDS,
          -FCK- WILL USE    110360 WORDS,
 -WXY- AND -YA- WILL USE     93940 WORDS,
               THERE ARE    999563 WORDS OF REPLICATED MEMORY AVAILABLE.
        TIME FOR -FA-   =        0.000
        TIME FOR -TA-   =        0.000
        TIME FOR -FCK-  =        0.060
 PRECONDITIONED CONJUGATE GRADIENT SOLVER     CONV. TOLERANCE=5.00E-05
 ITER    RESPONSE ERROR        IMPROVED
   1       3.87943E-01            18
   2       8.08141E-02            18
   3       9.75860E-03            18
   4       2.02083E-03            18
   5       4.71619E-04            18
   6       8.72903E-05            18
   7       7.71696E-06             6
 THE CPHF HAS CONVERGED AFTER  7 ITERATIONS.
 IT REQUIRED   114 FOCK-LIKE BUILDS TO FIND THE  18 SYMMETRY UNIQUE RESPONSES.
        TIME FOR -YA-   =        0.340
 ...... DONE WITH CPHF CONTRIBUTIONS ......
 STEP CPU TIME =     0.41 TOTAL CPU TIME =       63.4 (    1.1 MIN)
 TOTAL WALL CLOCK TIME=       64.3 SECONDS, CPU UTILIZATION IS  98.66%

          PARAMETERS CONTROLLING GEOMETRY SEARCH ARE
          METHOD =QA                  UPHESS =POWELL  
          NNEG   =         1          NFRZ   =         0
          NSTEP  =        20          IFOLOW =         1
          HESS   =CALC                RESTAR =         F
          IHREP  =         0          HSSEND =         F
          NPRT   =         0          NPUN   =         0
          OPTTOL = 1.000E-04          RMIN   = 1.500E-03
          RMAX   = 1.000E-01          RLIM   = 7.000E-02
          DXMAX  = 2.000E-01          PURIFY =         F
          MOVIE  =         F          TRUPD  =         T
          TRMAX  = 3.000E-01          TRMIN  = 5.000E-02
          ITBMAT =         5          STPT   =         F
          STSTEP = 1.000E-02          PROJCT=          T

 THE GRADIENT AT THE INITIAL GEOMETRY IS KNOWN.
 PROCEEDING DIRECTLY TO THE GEOMETRY SEARCH...

          NSERCH=  0     ENERGY=   -7383.4922315

                                 -----------------------
                                 GRADIENT (HARTREE/BOHR)
                                 -----------------------
        ATOM     ZNUC       DE/DX         DE/DY         DE/DZ
 --------------------------------------------------------------
   1  CL          17.0    -0.0016212    -0.0029621     0.0003608
   2  C            6.0    -0.0073935     0.0098634    -0.0053429
   3  H            1.0    -0.0128651     0.0126271     0.0190725
   4  H            1.0    -0.0071080     0.0101630    -0.0119718
   5  H            1.0    -0.0088940    -0.0285012    -0.0037689
   6  I           53.0     0.0378817    -0.0011903     0.0016504

          MAXIMUM GRADIENT =  0.0378817    RMS GRADIENT = 0.0139894
          FORCE CONSTANT MATRIX NOT UPDATED --- TAKING FIRST STEP
          THE FIRST FEW LOCAL MODES AND EIGENVALUES ARE

  MODE           1           2           3           4           5
         -0.136736    0.023189    0.025189    0.084047    0.089489
  MODE
   1     -0.274364   -0.007547   -0.005739   -0.005153   -0.045027
   2      0.016587   -0.220436   -0.521938   -0.087873    0.312503
   3      0.000218    0.523584   -0.224230    0.303674    0.082042
   4      0.890442   -0.013223    0.010878    0.027290   -0.027392
   5     -0.000845    0.088866    0.210422    0.007219   -0.023383
   6      0.006564   -0.209072    0.089289   -0.020812   -0.004963
   7     -0.112878   -0.045365    0.054384    0.546914    0.514894
   8     -0.033061    0.144099    0.306631    0.068897   -0.043650
   9     -0.062794   -0.263909    0.076942    0.013388    0.072129
  10     -0.090656    0.085903    0.019192   -0.720571    0.271359
  11     -0.033006    0.102429    0.287438   -0.047071   -0.068804
  12      0.038852   -0.244571    0.133668    0.009735   -0.062860
  13     -0.122231   -0.023650   -0.080979    0.125414   -0.697023
  14      0.058042    0.111097    0.248245    0.005265    0.037105
  15      0.000686   -0.334548    0.147026   -0.093370   -0.023274
  16     -0.290314    0.003880    0.002264    0.026106   -0.016811
  17     -0.007718   -0.226055   -0.530798    0.053564   -0.213770
  18      0.016475    0.528517   -0.222695   -0.212616   -0.063073

  MODE           6           7           8           9          10
          0.143088    0.145879    0.147353    0.180014    0.439244
  MODE
   1     -0.587030    0.162965    0.272765   -0.556812    0.009175
   2      0.030347    0.059268    0.059001    0.004904    0.002564
   3     -0.020570    0.067346   -0.060311   -0.010945   -0.001196
   4     -0.135091    0.039026    0.062875    0.045244   -0.112723
   5     -0.149059   -0.206709   -0.196550   -0.002049   -0.020292
   6      0.033305   -0.234216    0.231056    0.008595    0.008357
   7      0.322045   -0.010087   -0.170748   -0.116427    0.067973
   8      0.260512   -0.045947    0.524648   -0.020778   -0.244128
   9     -0.119310   -0.468268   -0.093582   -0.037502   -0.514006
  10      0.313282   -0.106483   -0.072881   -0.076835    0.045797
  11      0.100243    0.527968   -0.198646   -0.035214   -0.316163
  12      0.214227    0.252496    0.396766    0.037202    0.462139
  13      0.353847   -0.173906   -0.207860   -0.102018    0.055729
  14     -0.255021   -0.340467   -0.195740    0.048127    0.577247
  15     -0.104067    0.369818   -0.460401   -0.001332    0.044726
  16     -0.267054    0.088485    0.115848    0.806848   -0.065950
  17      0.012978    0.005887    0.007288    0.005011    0.000772
  18     -0.003585    0.012823   -0.013527    0.003982   -0.000021
          HESSIAN MODE FOLLOWING SWITCHED ON, FOLLOWING MODE   1
          FOLLOWING MODE  1 WITH EIGENVALUE   -0.13674 AND COMPONENTS
             -0.27436  0.01659  0.00022  0.89044 -0.00084  0.00656
             -0.11288 -0.03306 -0.06279 -0.09066 -0.03301  0.03885
             -0.12223  0.05804  0.00069 -0.29031 -0.00772  0.01647
          TS SEARCH, CORRECT HESSIAN, TRYING PURE NR STEP
               NR STEP HAS LENGTH         =   0.315293
          TRIM/QA LAMBDA FOR     TS MODE  =   0.06490686
          TRIM/QA LAMBDA FOR NON-TS MODES =  -0.06490686
          TRIM/QA STEP HAS LENGTH         =   0.200000
          RADIUS OF STEP TAKEN=   0.20000  CURRENT TRUST RADIUS=   0.20000

 BEGINNING GEOMETRY SEARCH POINT NSERCH=   1 ...

 COORDINATES OF ALL ATOMS ARE (ANGS)
   ATOM   CHARGE       X              Y              Z
 ------------------------------------------------------------
 CL         17.0   3.4681223467   0.0007920145   0.0025741308
 C           6.0   1.2974544918   0.0442010674  -0.0248950365
 H           1.0   1.2684911421   0.5192042948   0.9413445586
 H           1.0   1.2918093264   0.6591260178  -0.9098210900
 H           1.0   1.2818589318  -1.0267633121  -0.1145020271
 I          53.0  -1.1628221957   0.0064296241  -0.0087976466

 THE CURRENT FULLY SUBSTITUTED Z-MATRIX IS
 CL  
 C      1   2.1712756
 H      2   1.0770728  1    91.3953394
 H      2   1.0776171  3   119.0051211  1   -92.5462249  0
 H      2   1.0748197  3   120.9193804  4  -176.9091517  0
 I      2   2.4606193  1   177.6955061  4   153.2902387  0

          INTERNUCLEAR DISTANCES (ANGS.)
          ------------------------------

                1 CL         2 C          3 H          4 H          5 H     

   1 CL      0.0000000    2.1712756 *  2.4471246 *  2.4499402 *  2.4185377 *
   2 C       2.1712756 *  0.0000000    1.0770728 *  1.0776171 *  1.0748197 *
   3 H       2.4471246 *  1.0770728 *  0.0000000    1.8565926 *  1.8721663 *
   4 H       2.4499402 *  1.0776171 *  1.8565926 *  0.0000000    1.8640961 *
   5 H       2.4185377 *  1.0748197 *  1.8721663 *  1.8640961 *  0.0000000  
   6 I       4.6309619    2.4606193 *  2.6602618 *  2.6950087 *  2.6561489 *

                6 I     

   1 CL      4.6309619  
   2 C       2.4606193 *
   3 H       2.6602618 *
   4 H       2.6950087 *
   5 H       2.6561489 *
   6 I       0.0000000  

  * ... LESS THAN  3.000

 ...... END OF ONE-ELECTRON INTEGRALS ......
 STEP CPU TIME =     0.00 TOTAL CPU TIME =       63.4 (    1.1 MIN)
 TOTAL WALL CLOCK TIME=       64.3 SECONDS, CPU UTILIZATION IS  98.65%

 ...WARNING (SYMORB.SRC)...
 THE INPUT BASIS SET CONTAINS APPROXIMATE LINEAR DEPENDENCE.
 THE SMALLEST EIGENVALUE OF THE OVERLAP MATRIX IS   2.001962E-07
 THERE ARE    1 EIGENVALUES LESS THAN QMTTOL=  1.00E-06
 EIGENVECTORS BELOW -QMTTOL- ARE DROPPED FROM THE MO SPACE,
 IN ORDER TO ELIMINATE THE APPROXIMATE LINEAR DEPENDENCE.
 TOTAL NUMBER OF NONZERO TWO-ELECTRON INTEGRALS =              225104
         16 INTEGRAL RECORDS WERE STORED ON DISK FILE  8.
  ...... END OF TWO-ELECTRON INTEGRALS .....
 STEP CPU TIME =     0.56 TOTAL CPU TIME =       64.0 (    1.1 MIN)
 TOTAL WALL CLOCK TIME=       64.9 SECONDS, CPU UTILIZATION IS  98.66%

          --------------------------
                 RHF SCF CALCULATION
          --------------------------
     DENSITY MATRIX CONV=  1.00E-05

 ITER EX DEM     TOTAL ENERGY        E CHANGE  DENSITY CHANGE     ORB. GRAD
          ---------------START SECOND ORDER SCF---------------
   1  0  0    -7383.4937470547 -7383.4937470547   0.055001080   0.019680855
   2  1  0    -7383.4968640599    -0.0031170052   0.021747598   0.005566653
   3  2  0    -7383.4971476248    -0.0002835648   0.002150826   0.000718652
   4  3  0    -7383.4971509736    -0.0000033488   0.000349426   0.000221263
   5  4  0    -7383.4971512600    -0.0000002864   0.000197343   0.000045841
   6  5  0    -7383.4971512845    -0.0000000245   0.000064653   0.000013675
   7  6  0    -7383.4971512861    -0.0000000017   0.000017100   0.000003206
   8  7  0    -7383.4971512863    -0.0000000001   0.000002719   0.000000674
   9  8  0    -7383.4971512863     0.0000000000   0.000000944   0.000000203

          -----------------
          DENSITY CONVERGED
          -----------------
     TIME TO FORM FOCK OPERATORS=       0.0 SECONDS (       0.0 SEC/ITER)
     TIME TO SOLVE SCF EQUATIONS=       0.0 SECONDS (       0.0 SEC/ITER)

 FINAL RHF ENERGY IS    -7383.4971512863 AFTER   9 ITERATIONS
 ...... END OF RHF CALCULATION ......
 STEP CPU TIME =     0.06 TOTAL CPU TIME =       64.1 (    1.1 MIN)
 TOTAL WALL CLOCK TIME=       64.9 SECONDS, CPU UTILIZATION IS  98.66%
 ..... END OF 1-ELECTRON GRADIENT ......
 STEP CPU TIME =     0.07 TOTAL CPU TIME =       64.1 (    1.1 MIN)
 TOTAL WALL CLOCK TIME=       65.0 SECONDS, CPU UTILIZATION IS  98.66%
 ...... END OF 2-ELECTRON GRADIENT ......
 STEP CPU TIME =     6.40 TOTAL CPU TIME =       70.5 (    1.2 MIN)
 TOTAL WALL CLOCK TIME=       71.5 SECONDS, CPU UTILIZATION IS  98.66%

          NSERCH=  1     ENERGY=   -7383.4971513

                                 -----------------------
                                 GRADIENT (HARTREE/BOHR)
                                 -----------------------
        ATOM     ZNUC       DE/DX         DE/DY         DE/DZ
 --------------------------------------------------------------
   1  CL          17.0    -0.0018432    -0.0016229     0.0003466
   2  C            6.0     0.0021844    -0.0008872    -0.0006610
   3  H            1.0    -0.0052232     0.0036379     0.0033452
   4  H            1.0    -0.0028714     0.0031961    -0.0030039
   5  H            1.0    -0.0035186    -0.0031972    -0.0011447
   6  I           53.0     0.0112719    -0.0011268     0.0011178

          MAXIMUM GRADIENT =  0.0112719    RMS GRADIENT = 0.0036880
          HESSIAN UPDATED USING THE POWELL FORMULA
             ACTUAL ENERGY CHANGE WAS  -0.0049198267
          PREDICTED ENERGY CHANGE WAS  -0.0045281652 RATIO=  1.086
          OVERLAP OF CURRENT MODE   1 WITH PREVIOUS MODE IS     0.998068
          FOLLOWING MODE  1 WITH EIGENVALUE   -0.15702 AND COMPONENTS
              0.28105 -0.00474 -0.00353 -0.89782  0.00077 -0.00546
              0.13508  0.02026  0.05679  0.10067  0.02258 -0.03144
              0.13853 -0.05246  0.00389  0.24248  0.01360 -0.02025
          TS SEARCH, CORRECT HESSIAN, TRYING PURE NR STEP
               NR STEP HAS LENGTH         =   0.135048
          RADIUS OF STEP TAKEN=   0.13505  CURRENT TRUST RADIUS=   0.30000

 BEGINNING GEOMETRY SEARCH POINT NSERCH=   2 ...

 COORDINATES OF ALL ATOMS ARE (ANGS)
   ATOM   CHARGE       X              Y              Z
 ------------------------------------------------------------
 CL         17.0   3.4699059791   0.0309972591  -0.0106966370
 C           6.0   1.2964253172   0.0343708183  -0.0194639960
 H           1.0   1.2868773258   0.4977580815   0.9477664933
 H           1.0   1.2959527084   0.6415598503  -0.9025502028
 H           1.0   1.2943698763  -1.0354661057  -0.1034233485
 I          53.0  -1.1986171638   0.0337698031  -0.0257294197

 THE CURRENT FULLY SUBSTITUTED Z-MATRIX IS
 CL  
 C      1   2.1735010
 H      2   1.0725454  1    90.3400534
[...]
   36  I  6  Z   -0.000079   0.020667   0.009382   0.000064   0.000638
   37  I  6 XX   -0.029310  -0.000051  -0.000018   0.154093  -0.026443
   38  I  6 YY   -0.007908   0.000162  -0.000814   0.149854  -0.047850
   39  I  6 ZZ   -0.007908  -0.000103   0.000836   0.149854  -0.047850
   40  I  6 XY    0.000007  -0.004012   0.008830  -0.000001  -0.000007
   41  I  6 XZ   -0.000085   0.008832   0.004006   0.000017   0.000085
   42  I  6 YZ    0.000000   0.000920   0.000211  -0.000000  -0.000000
   43  I  6  S    0.078477  -0.000018  -0.000010  -0.990556   0.301596
   44  I  6  X    0.035846   0.000139   0.000049  -0.039229  -0.415501
   45  I  6  Y   -0.000010   0.018140  -0.039960   0.000011   0.000117
   46  I  6  Z    0.000123  -0.039960  -0.018141  -0.000133  -0.001422

                     36         37         38         39         40
                   -0.0744    -0.0744    -0.0131    -0.0131     0.0259
                     A          A          A          A          A   
    1  CL 1  S   -0.000000   0.000000   0.000000  -0.000000   0.004216
    2  CL 1  S    0.000000  -0.000000  -0.000000   0.000000  -0.012488
    3  CL 1  X   -0.000340   0.000898  -0.000036   0.000047   0.175855
    4  CL 1  Y   -0.266514  -0.077236  -0.014975  -0.009560  -0.000048
    5  CL 1  Z    0.077236  -0.266513   0.009560  -0.014975   0.000606
    6  CL 1  S   -0.000000   0.000000   0.000000  -0.000000   0.055265
    7  CL 1  X    0.001254  -0.003318   0.000135  -0.000177  -0.654728
    8  CL 1  Y    0.984328   0.285261   0.055859   0.035663   0.000180
    9  CL 1  Z   -0.285258   0.984323  -0.035662   0.055859  -0.002256
   10  C  2  S   -0.000000   0.000000   0.000000   0.000000   0.034142
   11  C  2  S    0.000000  -0.000001   0.000000  -0.000001  -0.091025
   12  C  2  X   -0.000080   0.000212  -0.000131   0.000173  -0.076770
   13  C  2  Y   -0.063215  -0.018321  -0.052630  -0.033603   0.000020
   14  C  2  Z    0.018319  -0.063215   0.033601  -0.052632  -0.000268
   15  H  3  S   -0.008961  -0.054300   0.005628  -0.045695  -0.118662
   16  H  4  S   -0.042545   0.034912  -0.042390   0.017975  -0.118655
   17  H  5  S    0.051507   0.019390   0.036759   0.027725  -0.118657
   18  I  6  S   -0.000000   0.000000  -0.000000   0.000000   0.000544
   19  I  6  S    0.000000  -0.000000   0.000000  -0.000000  -0.001572
   20  I  6  X    0.000008  -0.000021  -0.000211   0.000278  -0.079695
   21  I  6  Y    0.006457   0.001871  -0.085476  -0.054571   0.000022
   22  I  6  Z   -0.001871   0.006457   0.054571  -0.085476  -0.000274
   23  I  6  S   -0.000000   0.000000  -0.000000   0.000000   0.001083
   24  I  6  X   -0.000024   0.000063   0.000628  -0.000827   0.236943
   25  I  6  Y   -0.019197  -0.005563   0.254183   0.162279  -0.000066
   26  I  6  Z    0.005563  -0.019197  -0.162278   0.254181   0.000814
   27  I  6 XX   -0.000001   0.000002  -0.000000   0.000000  -0.000122
   28  I  6 YY    0.000026   0.000014   0.000016   0.000017   0.001269
   29  I  6 ZZ   -0.000025  -0.000016  -0.000016  -0.000017   0.001269
   30  I  6 XY   -0.000334  -0.000097  -0.000066  -0.000042   0.000000
   31  I  6 XZ    0.000097  -0.000334   0.000042  -0.000066  -0.000006
   32  I  6 YZ    0.000015  -0.000030   0.000019  -0.000019  -0.000000
   33  I  6  S    0.000000   0.000000   0.000000  -0.000000   0.000750
   34  I  6  X    0.000034  -0.000088  -0.000874   0.001151  -0.329716
   35  I  6  Y    0.026733   0.007747  -0.353933  -0.225964   0.000092
   36  I  6  Z   -0.007747   0.026733   0.225962  -0.353931  -0.001133
   37  I  6 XX    0.000002  -0.000005   0.000001  -0.000001  -0.000473
   38  I  6 YY   -0.000066  -0.000037  -0.000041  -0.000043  -0.003999
   39  I  6 ZZ    0.000064   0.000042   0.000040   0.000043  -0.003999
   40  I  6 XY    0.000857   0.000248   0.000190   0.000121  -0.000001
   41  I  6 XZ   -0.000249   0.000856  -0.000122   0.000190   0.000014
   42  I  6 YZ   -0.000040   0.000076  -0.000048   0.000048   0.000000
   43  I  6  S   -0.000000   0.000001  -0.000000   0.000001   0.023542
   44  I  6  X   -0.000080   0.000207   0.002099  -0.002763   0.791267
   45  I  6  Y   -0.062803  -0.018201   0.849738   0.542504  -0.000221
   46  I  6  Z    0.018200  -0.062803  -0.542500   0.849734   0.002718

                     41         42         43         44         45
                    0.4661     0.7989     0.8994     0.8994    11.9461
                     A          A          A          A          A   
    1  CL 1  S    0.013902   0.002836  -0.000000  -0.000000  -0.000120
    2  CL 1  S   -0.040998  -0.008646   0.000000   0.000000   0.000319
    3  CL 1  X    0.134024   0.031334   0.000000  -0.000003  -0.000580
    4  CL 1  Y   -0.000037  -0.000008  -0.000724  -0.000235   0.000000
    5  CL 1  Z    0.000463   0.000108  -0.000236   0.000724  -0.000002
    6  CL 1  S    0.188580   0.037356  -0.000000  -0.000001  -0.002125
    7  CL 1  X   -0.525048  -0.126892  -0.000001   0.000012   0.002935
    8  CL 1  Y    0.000144   0.000034   0.002884   0.000939  -0.000001
    9  CL 1  Z   -0.001813  -0.000439   0.000941  -0.002885   0.000010
   10  C  2  S   -0.009110   0.214627  -0.000002  -0.000005   0.004988
   11  C  2  S    0.067285  -1.472180   0.000014   0.000041  -0.022915
   12  C  2  X   -0.921492  -0.052182  -0.000921   0.003858   0.038565
   13  C  2  Y    0.000255   0.000032   1.092804   0.355975  -0.000011
   14  C  2  Z   -0.003168  -0.000201   0.355973  -1.092799   0.000132
   15  H  3  S   -0.034954   0.749452  -0.714664   0.751080  -0.007102
   16  H  4  S   -0.034954   0.749417  -0.293149  -0.994483  -0.007101
   17  H  5  S   -0.034954   0.749455   1.007792   0.243343  -0.007101
   18  I  6  S   -0.005260   0.000139   0.000000  -0.000000  -0.250097
   19  I  6  S    0.015342  -0.000441  -0.000000   0.000000   0.768338
   20  I  6  X    0.048511  -0.004726   0.000001  -0.000003  -0.000652
   21  I  6  Y   -0.000014   0.000001  -0.000859  -0.000280   0.000000
   22  I  6  Z    0.000166  -0.000016  -0.000280   0.000859  -0.000002
   23  I  6  S   -0.010901   0.000191   0.000000  -0.000000  -0.789621
   24  I  6  X   -0.144370   0.014079  -0.000002   0.000009   0.001998
   25  I  6  Y    0.000041  -0.000004   0.002557   0.000833  -0.000001
   26  I  6  Z   -0.000494   0.000048   0.000833  -0.002557   0.000007
   27  I  6 XX    0.000267  -0.002289  -0.000000   0.000001  -0.590122
   28  I  6 YY   -0.012305   0.001356   0.000386   0.000031  -0.589679
   29  I  6 ZZ   -0.012305   0.001356  -0.000385  -0.000032  -0.589679
   30  I  6 XY   -0.000004   0.000001   0.000108   0.000034   0.000000
   31  I  6 XZ    0.000050  -0.000014   0.000037  -0.000108  -0.000002
   32  I  6 YZ   -0.000000   0.000000  -0.000036   0.000445   0.000000
   33  I  6  S    0.001818   0.000986  -0.000000   0.000000   5.408245
   34  I  6  X    0.200630  -0.019619   0.000003  -0.000012  -0.002908
   35  I  6  Y   -0.000056   0.000006  -0.003531  -0.001150   0.000001
   36  I  6  Z    0.000686  -0.000066  -0.001151   0.003531  -0.000010
   37  I  6 XX    0.001266   0.004643   0.000000  -0.000002  -2.002741
   38  I  6 YY    0.033768  -0.004812  -0.001006  -0.000082  -2.003909
   39  I  6 ZZ    0.033768  -0.004812   0.001006   0.000083  -2.003909
   40  I  6 XY    0.000011  -0.000003  -0.000271  -0.000084  -0.000000
   41  I  6 XZ   -0.000128   0.000037  -0.000092   0.000270   0.000005
   42  I  6 YZ    0.000000  -0.000000   0.000093  -0.001163  -0.000000
   43  I  6  S   -0.215879   0.005760   0.000000  -0.000001   0.377437
   44  I  6  X   -0.533772   0.054326  -0.000009   0.000037   0.013311
   45  I  6  Y    0.000150  -0.000016   0.010760   0.003503  -0.000004
   46  I  6  Z   -0.001826   0.000184   0.003507  -0.010760   0.000046

     ----------------------------------------------------------------
     PROPERTY VALUES FOR THE RHF   SELF-CONSISTENT FIELD WAVEFUNCTION
     ----------------------------------------------------------------

          -----------------
          ENERGY COMPONENTS
          -----------------

         WAVEFUNCTION NORMALIZATION =       1.0000000000

                ONE ELECTRON ENERGY =  -10731.3784283661
                TWO ELECTRON ENERGY =    3102.0830709981
           NUCLEAR REPULSION ENERGY =     245.7973405981
                                      ------------------
                       TOTAL ENERGY =   -7383.4980167698

 ELECTRON-ELECTRON POTENTIAL ENERGY =    3102.0830709981
  NUCLEUS-ELECTRON POTENTIAL ENERGY =  -18262.2151912842
   NUCLEUS-NUCLEUS POTENTIAL ENERGY =     245.7973405981
                                      ------------------
             TOTAL POTENTIAL ENERGY =  -14914.3347796879
               TOTAL KINETIC ENERGY =    7530.8367629181
                 VIRIAL RATIO (V/T) =       1.9804352755

          ---------------------------------------
          MULLIKEN AND LOWDIN POPULATION ANALYSES
          ---------------------------------------

     ATOMIC MULLIKEN POPULATION IN EACH MOLECULAR ORBITAL

                      1          2          3          4          5

                  2.000000   2.000000   2.000000   2.000000   2.000000

    1             0.000000  -0.000000  -0.000000  -0.000000  -0.000000
    2             0.000000   0.000003   0.000000   0.000000   0.000000
    3             0.000000   0.000000   0.000000   0.000000   0.000000
    4             0.000000   0.000000   0.000000   0.000000   0.000000
    5             0.000000   0.000000   0.000000   0.000000   0.000000
    6             2.000000   1.999997   2.000000   2.000000   2.000000

                      6          7          8          9         10

                  2.000000   2.000000   2.000000   2.000000   2.000000

    1             2.000000  -0.000000  -0.000000  -0.000000  -0.000000
    2             0.000000  -0.000028   0.000004   0.000000   0.000000
    3             0.000000  -0.000002   0.000000   0.000000   0.000000
    4             0.000000  -0.000002   0.000000   0.000000   0.000000
    5             0.000000  -0.000002   0.000000   0.000000   0.000000
    6             0.000000   2.000034   1.999995   2.000000   2.000000

                     11         12         13         14         15

                  2.000000   2.000000   2.000000   2.000000   2.000000

    1            -0.000000  -0.000000  -0.000000  -0.000000  -0.000000
    2            -0.000000  -0.000000  -0.000000  -0.000000  -0.000000
    3             0.000000  -0.000000  -0.000000  -0.000000  -0.000000
    4             0.000000  -0.000000  -0.000000  -0.000000  -0.000000
    5             0.000000  -0.000000  -0.000000  -0.000000  -0.000000
    6             2.000000   2.000000   2.000000   2.000000   2.000000

                     16         17         18         19         20

                  2.000000   2.000000   2.000000   2.000000   2.000000

    1            -0.000038   2.000174   2.000157   2.000006   2.000006
    2             2.001897  -0.000159  -0.000154  -0.000003  -0.000003
    3            -0.000606  -0.000005  -0.000001  -0.000000  -0.000002
    4            -0.000606  -0.000005  -0.000001  -0.000002  -0.000000
    5            -0.000606  -0.000005  -0.000001  -0.000001  -0.000001
    6            -0.000039  -0.000000  -0.000000  -0.000000  -0.000000

                     21         22         23         24         25

                  2.000000   2.000000   2.000000   2.000000   2.000000

    1             0.000000  -0.000000  -0.000000  -0.000000   0.000002
    2             0.000060  -0.000996  -0.000012  -0.000012   0.002125
    3             0.000001  -0.000027  -0.000016  -0.000001   0.000059
    4             0.000001  -0.000027  -0.000008  -0.000009   0.000059
    5             0.000001  -0.000027  -0.000002  -0.000015   0.000059
    6             1.999936   2.001078   2.000038   2.000038   1.997695

                     26         27         28         29         30

                  2.000000   2.000000   2.000000   2.000000   2.000000

    1            -0.000000  -0.000000  -0.000000  -0.000000   0.310962
    2             0.000074   0.000074  -0.000000  -0.000000   1.045793
    3             0.000009   0.000030   0.000002   0.000000   0.204004
    4             0.000039   0.000000   0.000001   0.000001   0.204008
    5             0.000010   0.000029   0.000000   0.000002   0.204004
    6             1.999867   1.999867   1.999997   1.999997   0.031228

                     31         32         33         34         35

                  2.000000   2.000000   2.000000   2.000000   2.000000

    1             1.654371   0.016402   0.016402   0.053919   0.859343
    2             0.205113   1.033916   1.033916   0.126393   0.589852
    3             0.037035   0.259801   0.367673   0.004699   0.000897
    4             0.037037   0.608365   0.019109   0.004695   0.000896
    5             0.037036   0.073047   0.554430   0.004696   0.000896
    6             0.029407   0.008470   0.008470   1.805599   0.548116

                     36         37         38         39         40

                  2.000000   2.000000   2.000000   2.000000   2.000000

    1             1.975989   1.975989   0.007605   0.007606   0.743908
    2             0.007825   0.007825   0.006041   0.006041   0.021506
    3             0.000124   0.004560   0.000039   0.002589   0.017691
    4             0.002799   0.001885   0.002228   0.000401   0.017689
    5             0.004103   0.000581   0.001676   0.000953   0.017689
    6             0.009159   0.009159   1.982411   1.982410   1.181518

               ----- POPULATIONS IN EACH AO -----
                             MULLIKEN      LOWDIN
              1  CL 1  S      2.00000     1.99996
              2  CL 1  S      1.99964     1.99941
              3  CL 1  X      1.99505     1.99013
              4  CL 1  Y      2.00000     2.00000
              5  CL 1  Z      2.00000     2.00000
              6  CL 1  S      1.98356     1.97631
              7  CL 1  X      1.64456     1.64593
              8  CL 1  Y      2.00000     2.00000
              9  CL 1  Z      2.00000     2.00000
             10  C  2  S      1.99601     1.98978
             11  C  2  S      1.23139     1.07360
             12  C  2  X      0.76401     0.78856
             13  C  2  Y      1.04784     1.06602
             14  C  2  Z      1.04784     1.06602
             15  H  3  S      0.89855     0.93949
             16  H  4  S      0.89855     0.93949
             17  H  5  S      0.89855     0.93949
             18  I  6  S      2.00069     1.99597
             19  I  6  S      1.91423     1.93241
             20  I  6  X      2.00012     1.99974
             21  I  6  Y      2.00000     2.00000
             22  I  6  Z      2.00000     2.00000
             23  I  6  S      0.59614     0.68626
             24  I  6  X      1.99783     1.99484
             25  I  6  Y      2.00000     2.00000
             26  I  6  Z      2.00000     2.00000
             27  I  6 XX      1.66427     1.71449
             28  I  6 YY      1.66432     1.71448
             29  I  6 ZZ      1.66432     1.71448
             30  I  6 XY      2.00000     2.00000
             31  I  6 XZ      2.00000     2.00000
             32  I  6 YZ      2.00000     2.00000
             33  I  6  S      0.63354     0.66854
             34  I  6  X      1.98225     1.97978
             35  I  6  Y      1.99999     1.99999
             36  I  6  Z      1.99999     1.99999
             37  I  6 XX      1.95768     1.85935
             38  I  6 YY      1.95615     1.85865
             39  I  6 ZZ      1.95615     1.85865
             40  I  6 XY      2.00000     2.00000
             41  I  6 XZ      2.00000     2.00000
             42  I  6 YZ      2.00000     2.00000
             43  I  6  S      1.95854     1.95733
             44  I  6  X      1.64833     1.65097
             45  I  6  Y      1.99995     1.99994
             46  I  6  Z      1.99995     1.99994

          ----- MULLIKEN ATOMIC OVERLAP POPULATIONS -----
          (OFF-DIAGONAL ELEMENTS NEED TO BE MULTIPLIED BY 2)

             1           2           3           4           5

    1   17.6062062
    2    0.0699443   4.7341761
    3   -0.0182556   0.4021177   0.5665323
    4   -0.0182546   0.4021175  -0.0156931   0.5665323
    5   -0.0182548   0.4021169  -0.0156929  -0.0156934   0.5665332
    6    0.0014163   0.0766199  -0.0204563  -0.0204549  -0.0204552

             6

    6   53.5777758

          TOTAL MULLIKEN AND LOWDIN ATOMIC POPULATIONS
       ATOM         MULL.POP.    CHARGE          LOW.POP.     CHARGE
    1 CL           17.622802   -0.622802        17.611734   -0.611734
    2 C             6.087093   -0.087093         5.983972    0.016028
    3 H             0.898552    0.101448         0.939491    0.060509
    4 H             0.898554    0.101446         0.939493    0.060507
    5 H             0.898554    0.101446         0.939492    0.060508
    6 I            53.594446   -0.594446        53.585818   -0.585818

          -------------------------------
          BOND ORDER AND VALENCE ANALYSIS     BOND ORDER THRESHOLD=0.050
          -------------------------------

                   BOND                       BOND                       BOND
  ATOM PAIR DIST  ORDER      ATOM PAIR DIST  ORDER      ATOM PAIR DIST  ORDER
    1   2  2.179  0.463        1   6  4.678  0.139        2   3  1.073  0.976
    2   4  1.073  0.976        2   5  1.073  0.976        2   6  2.499  0.495

                       TOTAL       BONDED        FREE
      ATOM            VALENCE     VALENCE     VALENCE
    1 CL                0.612       0.612      -0.000
    2 C                 3.888       3.888      -0.000
    3 H                 0.990       0.990      -0.000
    4 H                 0.990       0.990       0.000
    5 H                 0.990       0.990      -0.000
    6 I                 0.647       0.647       0.000

          ---------------------
          ELECTROSTATIC MOMENTS
          ---------------------

 POINT   1           X           Y           Z (BOHR)    CHARGE
                -0.131231    0.064628   -0.044412       -1.00 (A.U.)
         DX          DY          DZ         /D/  (DEBYE)
    -5.511182    0.001516   -0.018985    5.511215
 ...... END OF PROPERTY EVALUATION ......
 STEP CPU TIME =     0.01 TOTAL CPU TIME =      105.5 (    1.8 MIN)
 TOTAL WALL CLOCK TIME=      107.2 SECONDS, CPU UTILIZATION IS  98.44%
  $VIB   
          IVIB=   0 IATOM=   0 ICOORD=   0 E=    -7383.4980167698
  2.658178323E-06 2.388564182E-07 9.792826187E-07-5.311622818E-06 2.136445760E-06
 -5.984286021E-06-4.394246874E-07 6.603491496E-07 1.088182100E-06 8.193123232E-08
 -2.388917475E-06 3.200940715E-06-1.598048944E-07-8.435407399E-07-3.526398335E-07
  3.170376225E-06 1.968572507E-07 1.068490187E-06
 -5.511182246E+00 1.516430767E-03-1.898532584E-02
 ......END OF GEOMETRY SEARCH......
 STEP CPU TIME =     0.00 TOTAL CPU TIME =      105.5 (    1.8 MIN)
 TOTAL WALL CLOCK TIME=      107.2 SECONDS, CPU UTILIZATION IS  98.44%
      996828  WORDS OF DYNAMIC MEMORY USED
 EXECUTION OF GAMESS TERMINATED NORMALLY Tue Oct  4 13:17:27 2011
 DDI: 263224 bytes (0.3 MB / 0 MWords) used by master data server.

 ----------------------------------------
 CPU timing information for all processes
 ========================================
 0: 105.350 + 0.188 = 105.538
 ----------------------------------------
 ddikick.x: exited gracefully.
unset echo
----- accounting info -----
Files used on the master node idhi were:
-rw-r--r-- 1 koushik koushik     435 2011-10-04 13:15 /home/koushik/Desktop/gamess/transition.F05
-rw-r--r-- 1 koushik koushik 2520168 2011-10-04 13:17 /home/koushik/Desktop/gamess/transition.F08
-rw-r--r-- 1 koushik koushik 1668720 2011-10-04 13:17 /home/koushik/Desktop/gamess/transition.F10
-rw-r--r-- 1 koushik koushik  155808 2011-10-04 13:16 /home/koushik/Desktop/gamess/transition.F18
Tue Oct  4 13:17:30 IST 2011
0.0u 0.0s 1:50.27 0.1% 0+0k 0+24io 0pf+0w
