          ******************************************************
          *         GAMESS VERSION =  1 OCT 2010 (R1)          *
          *             FROM IOWA STATE UNIVERSITY             *
          * M.W.SCHMIDT, K.K.BALDRIDGE, J.A.BOATZ, S.T.ELBERT, *
          *   M.S.GORDON, J.H.JENSEN, S.KOSEKI, N.MATSUNAGA,   *
          *          K.A.NGUYEN, S.J.SU, T.L.WINDUS,           *
          *       TOGETHER WITH M.DUPUIS, J.A.MONTGOMERY       *
          *         J.COMPUT.CHEM.  14, 1347-1363(1993)        *
          **************** 32 BIT LINUX VERSION ****************

  SINCE 1993, STUDENTS AND POSTDOCS WORKING AT IOWA STATE UNIVERSITY
  AND ALSO IN THEIR VARIOUS JOBS AFTER LEAVING ISU HAVE MADE IMPORTANT
  CONTRIBUTIONS TO THE CODE:
     IVANA ADAMOVIC, CHRISTINE AIKENS, YURI ALEXEEV, POOJA ARORA,
     ANDREY ASADCHEV, ROB BELL, PRADIPTA BANDYOPADHYAY, JONATHAN BENTZ,
     BRETT BODE, GALINA CHABAN, WEI CHEN, CHEOL HO CHOI, PAUL DAY, TIM DUDLEY,
     DMITRI FEDOROV, GRAHAM FLETCHER, MARK FREITAG, KURT GLAESEMANN, DAN KEMP,
     GRANT MERRILL, NORIYUKI MINEZAWA, JONATHAN MULLIN, TAKESHI NAGATA,
     SEAN NEDD, HEATHER NETZLOFF, BOSILJKA NJEGIC, RYAN OLSON, MIKE PAK,
     JIM SHOEMAKER, LYUDMILA SLIPCHENKO, SAROM SOK, JIE SONG,
     TETSUYA TAKETSUGU, SIMON WEBB, SOOHAENG YOO, FEDERICO ZAHARIEV

  ADDITIONAL CODE HAS BEEN PROVIDED BY COLLABORATORS IN OTHER GROUPS:
     IOWA STATE UNIVERSITY:
          JOE IVANIC, LAIMUTIS BYTAUTAS, KLAUS RUEDENBERG
     UNIVERSITY OF TOKYO: KIMIHIKO HIRAO, TAKAHITO NAKAJIMA,
          TAKAO TSUNEDA, MUNEAKI KAMIYA, SUSUMU YANAGISAWA,
          KIYOSHI YAGI, MAHITO CHIBA, SEIKEN TOKURA, NAOAKI KAWAKAMI
     UNIVERSITY OF AARHUS: FRANK JENSEN
     UNIVERSITY OF IOWA: VISVALDAS KAIRYS, HUI LI
     NATIONAL INST. OF STANDARDS AND TECHNOLOGY: WALT STEVENS, DAVID GARMER
     UNIVERSITY OF PISA: BENEDETTA MENNUCCI, JACOPO TOMASI
     UNIVERSITY OF MEMPHIS: HENRY KURTZ, PRAKASHAN KORAMBATH
     UNIVERSITY OF ALBERTA: TOBY ZENG, MARIUSZ KLOBUKOWSKI
     UNIVERSITY OF NEW ENGLAND: MARK SPACKMAN
     MIE UNIVERSITY: HIROAKI UMEDA
     MICHIGAN STATE UNIVERSITY:
          KAROL KOWALSKI, MARTA WLOCH, JEFFREY GOUR, JESSE LUTZ, PIOTR PIECUCH
     UNIVERSITY OF SILESIA: MONIKA MUSIAL, STANISLAW KUCHARSKI
     FACULTES UNIVERSITAIRES NOTRE-DAME DE LA PAIX:
          OLIVIER QUINET, BENOIT CHAMPAGNE
     UNIVERSITY OF CALIFORNIA - SANTA BARBARA: BERNARD KIRTMAN
     INSTITUTE FOR MOLECULAR SCIENCE:
          KAZUYA ISHIMURA, MICHIO KATOUDA, AND SHIGERU NAGASE
     UNIVERSITY OF NOTRE DAME: DAN CHIPMAN
     KYUSHU UNIVERSITY:
          HARUYUKI NAKANO,
          FENG LONG GU, JACEK KORCHOWIEC, MARCIN MAKOWSKI, AND YURIKO AOKI,
          HIROTOSHI MORI AND EISAKU MIYOSHI
     PENNSYLVANIA STATE UNIVERSITY:
          TZVETELIN IORDANOV, CHET SWALINA, JONATHAN SKONE,
          SHARON HAMMES-SCHIFFER
     WASEDA UNIVERSITY:
          MASATO KOBAYASHI, TOMOKO AKAMA, HIROMI NAKAI
     UNIVERSITY OF NEBRASKA:
          PEIFENG SU, DEJUN SI, YALI WANG, HUI LI
     UNIVERSITY OF ZURICH:
          ROBERTO PEVERATI, KIM BALDRIDGE
     N. COPERNICUS UNIVERSITY AND JACKSON STATE UNIVERSITY:
          MARIA BARYSZ

 EXECUTION OF GAMESS BEGUN Tue Oct  4 13:19:37 2011

            ECHO OF THE FIRST FEW INPUT CARDS -
 INPUT CARD> $CONTRL RUNTYP=ENERGY ICHARG=-1 COORD=UNIQUE $END                              
 INPUT CARD> $BASIS  GBASIS=STO NGAUSS=6 $END                                               
 INPUT CARD> $DATA                                                                          
 INPUT CARD>STO-6G/ Iodochloromethane single point energy                                   
 INPUT CARD>C1                                                                              
 INPUT CARD>CL         17.0   3.4714692869   0.0332177424  -0.0113326245                    
 INPUT CARD>C           6.0   1.2925165308   0.0338155196  -0.0188481816                    
 INPUT CARD>H           1.0   1.2925972447   0.4961671399   0.9490587227                    
 INPUT CARD>H           1.0   1.2990078274   0.6408618757  -0.9031872654                    
 INPUT CARD>H           1.0   1.2957886931  -1.0355884504  -0.1023813851                    
 INPUT CARD>I          53.0  -1.2064655398   0.0345158793  -0.0274063769                    
 INPUT CARD> $END                                                                           
    1000000 WORDS OF MEMORY AVAILABLE

     BASIS OPTIONS
     -------------
     GBASIS=STO          IGAUSS=       6      POLAR=NONE    
     NDFUNC=       0     NFFUNC=       0     DIFFSP=       F
     NPFUNC=       0      DIFFS=       F     BASNAM=        


     RUN TITLE
     ---------
 STO-6G/ Iodochloromethane single point energy                                   

 THE POINT GROUP OF THE MOLECULE IS C1      
 THE ORDER OF THE PRINCIPAL AXIS IS     0

 ATOM      ATOMIC                      COORDINATES (BOHR)
           CHARGE         X                   Y                   Z
 CL         17.0     6.5601257270        0.0627724311       -0.0214155550
 C           6.0     2.4425020778        0.0639020662       -0.0356178986
 H           1.0     2.4426546050        0.9376199385        1.7934609322
 H           1.0     2.4547688497        1.2110533411       -1.7067764472
 H           1.0     2.4486855679       -1.9569784073       -0.1934727641
 I          53.0    -2.2798892839        0.0652255541       -0.0517905427

          INTERNUCLEAR DISTANCES (ANGS.)
          ------------------------------

                1 CL         2 C          3 H          4 H          5 H     

   1 CL      0.0000000    2.1789658 *  2.4257282 *  2.4257421 *  2.4257417 *
   2 C       2.1789658 *  0.0000000    1.0726662 *  1.0726617 *  1.0726665 *
   3 H       2.4257282 *  1.0726662 *  0.0000000    1.8579001 *  1.8579052 *
   4 H       2.4257421 *  1.0726617 *  1.8579001 *  0.0000000    1.8578983 *
   5 H       2.4257417 *  1.0726665 *  1.8579052 *  1.8578983 *  0.0000000  
   6 I       4.6779626    2.4989968 *  2.7224843 *  2.7225070 *  2.7225027 *

                6 I     

   1 CL      4.6779626  
   2 C       2.4989968 *
   3 H       2.7224843 *
   4 H       2.7225070 *
   5 H       2.7225027 *
   6 I       0.0000000  

  * ... LESS THAN  3.000


     ATOMIC BASIS SET
     ----------------
 THE CONTRACTED PRIMITIVE FUNCTIONS HAVE BEEN UNNORMALIZED
 THE CONTRACTED BASIS FUNCTIONS ARE NOW NORMALIZED TO UNITY

  SHELL TYPE  PRIMITIVE        EXPONENT          CONTRACTION COEFFICIENT(S)

 CL        

      1   S       1          6236.5455253    0.009163596281
      1   S       2          1143.4637952    0.049361492943
      1   S       3           319.8999635    0.168538304910
      1   S       4           109.8942714    0.370562799722
      1   S       5            42.6751614    0.416491529825
      1   S       6            17.5759881    0.130334084108

      2   L       7           403.9729660   -0.013252788090    0.003759696623
      2   L       8            79.9567927   -0.046991710139    0.037679369843
      2   L       9            24.8505116   -0.033785371509    0.173896743514
      2   L      10             9.5608875    0.250241786092    0.418036434734
      2   L      11             4.1523000    0.595117252581    0.425859547735
      2   L      12             1.9033029    0.240706176292    0.101708295508

      3   L      13            14.1059247   -0.007943126362   -0.007139358907
      3   L      14             3.7776934   -0.071002641720   -0.018292770701
      3   L      15             1.4166751   -0.178502692500    0.076216214285
      3   L      16             0.6341298    0.151063505800    0.414509859729
      3   L      17             0.3137985    0.735491476701    0.488962147134
      3   L      18             0.1617210    0.276059312300    0.105881652107

 C         

      4   S      19           742.7370491    0.009163596281
      4   S      20           136.1800249    0.049361492943
      4   S      21            38.0982635    0.168538304910
      4   S      22            13.0877818    0.370562799722
      4   S      23             5.0823686    0.416491529825
      4   S      24             2.0932001    0.130334084108

      5   L      25            30.4972395   -0.013252788090    0.003759696623
      5   L      26             6.0361996   -0.046991710139    0.037679369843
      5   L      27             1.8760463   -0.033785371509    0.173896743514
      5   L      28             0.7217826    0.250241786092    0.418036434734
      5   L      29             0.3134707    0.595117252581    0.425859547735
      5   L      30             0.1436866    0.240706176292    0.101708295508

 H         

      6   S      31            35.5232212    0.009163596281
      6   S      32             6.5131437    0.049361492943
      6   S      33             1.8221429    0.168538304910
      6   S      34             0.6259553    0.370562799722
      6   S      35             0.2430767    0.416491529825
      6   S      36             0.1001124    0.130334084108

 H         

      7   S      37            35.5232212    0.009163596281
      7   S      38             6.5131437    0.049361492943
      7   S      39             1.8221429    0.168538304910
      7   S      40             0.6259553    0.370562799722
      7   S      41             0.2430767    0.416491529825
      7   S      42             0.1001124    0.130334084108

 H         

      8   S      43            35.5232212    0.009163596281
      8   S      44             6.5131437    0.049361492943
      8   S      45             1.8221429    0.168538304910
      8   S      46             0.6259553    0.370562799722
      8   S      47             0.2430767    0.416491529825
      8   S      48             0.1001124    0.130334084108

 I         

      9   S      49         62590.7906703    0.009163596281
      9   S      50         11475.9529545    0.049361492943
      9   S      51          3210.5580839    0.168538304910
      9   S      52          1102.9133528    0.370562799722
      9   S      53           428.2935294    0.416491529825
      9   S      54           176.3949273    0.130334084108

     10   L      55          5534.2108840   -0.013252788090    0.003759696623
     10   L      56          1095.3647634   -0.046991710139    0.037679369843
     10   L      57           340.4385520   -0.033785371509    0.173896743514
     10   L      58           130.9789819    0.250241786092    0.418036434734
     10   L      59            56.8842611    0.595117252581    0.425859547735
     10   L      60            26.0742188    0.240706176292    0.101708295508

     11   L      61           469.7945028   -0.007943126362   -0.007139358907
     11   L      62           125.8151880   -0.071002641720   -0.018292770701
     11   L      63            47.1820323   -0.178502692500    0.076216214285
     11   L      64            21.1195450    0.151063505800    0.414509859729
     11   L      65            10.4509865    0.735491476701    0.488962147134
     11   L      66             5.3860784    0.276059312300    0.105881652107

     12   D      67           379.5212674    0.007283828113
     12   D      68           121.7356481    0.053867993635
     12   D      69            50.5051947    0.207213914918
     12   D      70            23.7800036    0.426626909236
     12   D      71            12.0153180    0.384310020433
     12   D      72             6.1901018    0.089028275468

     13   L      73            96.2493114   -0.007943126362   -0.007139358907
     13   L      74            25.7764302   -0.071002641720   -0.018292770701
     13   L      75             9.6664352   -0.178502692500    0.076216214285
     13   L      76             4.3268741    0.151063505800    0.414509859729
     13   L      77             2.1411495    0.735491476701    0.488962147134
     13   L      78             1.1034747    0.276059312300    0.105881652107

     14   D      79           144.8111768   -0.000474984288
     14   D      80            41.9239601   -0.003566777891
     14   D      81             6.9045584    0.110867048093
     14   D      82             3.4418780    0.415964692974
     14   D      83             1.8449473    0.462167251671
     14   D      84             1.0101351    0.108125019593

     15   L      85             4.5102596    0.012674535247   -0.001105679452
     15   L      86             0.1375311    0.436851214840    0.149314926013
     15   L      87             0.2344053    1.104323071014    0.696457654898
     15   L      88             0.4072213   -0.323200898790    0.321032840925
     15   L      89             0.7624154   -0.430757197893   -0.162847919307
     15   L      90             1.6141820    0.003266709084   -0.062431369065

 TOTAL NUMBER OF BASIS SET SHELLS             =   15
 NUMBER OF CARTESIAN GAUSSIAN BASIS FUNCTIONS =   46
 NUMBER OF ELECTRONS                          =   80
 CHARGE OF MOLECULE                           =   -1
 SPIN MULTIPLICITY                            =    1
 NUMBER OF OCCUPIED ORBITALS (ALPHA)          =   40
 NUMBER OF OCCUPIED ORBITALS (BETA )          =   40
 TOTAL NUMBER OF ATOMS                        =    6
 THE NUCLEAR REPULSION ENERGY IS      245.7973405973

     $CONTRL OPTIONS
     ---------------
 SCFTYP=RHF          RUNTYP=ENERGY       EXETYP=RUN     
 MPLEVL=       0     CITYP =NONE         CCTYP =NONE         VBTYP =NONE    
 DFTTYP=NONE         TDDFT =NONE    
 MULT  =       1     ICHARG=      -1     NZVAR =       0     COORD =UNIQUE  
 PP    =NONE         RELWFN=NONE         LOCAL =NONE         NUMGRD=       F
 ISPHER=      -1     NOSYM =       0     MAXIT =      30     UNITS =ANGS    
 PLTORB=       F     MOLPLT=       F     AIMPAC=       F     FRIEND=        
 NPRINT=       7     IREST =       0     GEOM  =INPUT   
 NORMF =       0     NORMP =       0     ITOL  =      20     ICUT  =       9
 INTTYP=BEST         GRDTYP=BEST         QMTTOL= 1.0E-06

     $SYSTEM OPTIONS
     ---------------
  REPLICATED MEMORY=     1000000 WORDS (ON EVERY NODE).
 DISTRIBUTED MEMDDI=           0 MILLION WORDS IN AGGREGATE,
 MEMDDI DISTRIBUTED OVER   1 PROCESSORS IS           0 WORDS/PROCESSOR.
 TOTAL MEMORY REQUESTED ON EACH PROCESSOR=     1000000 WORDS.
 TIMLIM=      525600.00 MINUTES, OR     365.0 DAYS.
 PARALL= F  BALTYP=  DLB     KDIAG=    0  COREFL= F
 MXSEQ2=     300 MXSEQ3=     150

          ----------------
          PROPERTIES INPUT
          ----------------

     MOMENTS            FIELD           POTENTIAL          DENSITY
 IEMOM =       1   IEFLD =       0   IEPOT =       0   IEDEN =       0
 WHERE =COMASS     WHERE =NUCLEI     WHERE =NUCLEI     WHERE =NUCLEI  
 OUTPUT=BOTH       OUTPUT=BOTH       OUTPUT=BOTH       OUTPUT=BOTH    
 IEMINT=       0   IEFINT=       0                     IEDINT=       0
                                                       MORB  =       0
          EXTRAPOLATION IN EFFECT
          SOSCF IN EFFECT
 ORBITAL PRINTING OPTION: NPREO=     1    46     2     1

     -------------------------------
     INTEGRAL TRANSFORMATION OPTIONS
     -------------------------------
     NWORD  =            0
     CUTOFF = 1.0E-09     MPTRAN =       0
     DIRTRF =       F     AOINTS =DUP     

          ----------------------
          INTEGRAL INPUT OPTIONS
          ----------------------
 NOPK  =       1 NORDER=       0 SCHWRZ=       T

     ------------------------------------------
     THE POINT GROUP IS C1 , NAXIS= 0, ORDER= 1
     ------------------------------------------

     DIMENSIONS OF THE SYMMETRY SUBSPACES ARE
 A   =   46

 ..... DONE SETTING UP THE RUN .....
 STEP CPU TIME =     0.00 TOTAL CPU TIME =        0.0 (    0.0 MIN)
 TOTAL WALL CLOCK TIME=        0.0 SECONDS, CPU UTILIZATION IS   0.00%

          ********************
          1 ELECTRON INTEGRALS
          ********************
 ...... END OF ONE-ELECTRON INTEGRALS ......
 STEP CPU TIME =     0.02 TOTAL CPU TIME =        0.0 (    0.0 MIN)
 TOTAL WALL CLOCK TIME=        0.0 SECONDS, CPU UTILIZATION IS  66.67%

          -------------
          GUESS OPTIONS
          -------------
          GUESS =HUCKEL            NORB  =       0          NORDER=       0
          MIX   =       F          PRTMO =       F          PUNMO =       F
          TOLZ  = 1.0E-08          TOLE  = 1.0E-05
          SYMDEN=       F          PURIFY=       F

 INITIAL GUESS ORBITALS GENERATED BY HUCKEL   ROUTINE.
 HUCKEL GUESS REQUIRES     28168 WORDS.

 STATISTICS FOR GENERATION OF SYMMETRY ORBITAL -Q- MATRIX
 NUMBER OF CARTESIAN ATOMIC ORBITALS=         46
 NUMBER OF SPHERICAL CONTAMINANTS DROPPED=     0
 NUMBER OF LINEARLY DEPENDENT MOS DROPPED=     1
 TOTAL NUMBER OF MOS IN VARIATION SPACE=      45

 ...WARNING (SYMORB.SRC)...
 THE INPUT BASIS SET CONTAINS APPROXIMATE LINEAR DEPENDENCE.
 THE SMALLEST EIGENVALUE OF THE OVERLAP MATRIX IS   2.001964E-07
 THERE ARE    1 EIGENVALUES LESS THAN QMTTOL=  1.00E-06
 EIGENVECTORS BELOW -QMTTOL- ARE DROPPED FROM THE MO SPACE,
 IN ORDER TO ELIMINATE THE APPROXIMATE LINEAR DEPENDENCE.

 THIS WILL MOST LIKELY CHANGE THE ENERGY ON THE ORDER OF TENS OF MICROHARTREES,
 DEPENDING ON THE NUMBER OF ORBITALS REMOVED.  THE VALUE OF QMTTOL CAN BE 
 CHANGED IN $CONTRL: JOBS WITH EIGENVALUES BELOW 1.0E-07 PROBABLY WON'T
 CONVERGE.  EIGENVALUES BETWEEN 1.0E-07 AND 1.0E-06 MAY REQUIRE LOOSENING OF
 THE DENSITY CRITERION (CONV IN $SCF), MORE ACCURATE INTEGRAL EVALUATION
 (ICUT=11 IN $CONTRL), MORE ACCURATE DIRECT SCF FOCK MATRIX
 CONSTRUCTION (FDIFF=.FALSE. IN $SCF), OR CHANGING THE SCF CONVERGER
 (DIIS=.TRUE. IN $SCF).

 SYMMETRIES FOR INITIAL GUESS ORBITALS FOLLOW.   BOTH SET(S).
    40 ORBITALS ARE OCCUPIED (   29 CORE ORBITALS).
    30=A       31=A       32=A       33=A       34=A       35=A       36=A   
    37=A       38=A       39=A       40=A       41=A       42=A       43=A   
    44=A       45=A   
 ...... END OF INITIAL ORBITAL SELECTION ......
 STEP CPU TIME =     0.01 TOTAL CPU TIME =        0.0 (    0.0 MIN)
 TOTAL WALL CLOCK TIME=        0.0 SECONDS, CPU UTILIZATION IS  75.00%

                    ----------------------
                    AO INTEGRAL TECHNOLOGY
                    ----------------------
     S,P,L SHELL ROTATED AXIS INTEGRALS, REPROGRAMMED BY
        KAZUYA ISHIMURA (IMS) AND JOSE SIERRA (SYNSTAR).
     S,P,D,L SHELL ROTATED AXIS INTEGRALS PROGRAMMED BY
        KAZUYA ISHIMURA (INSTITUTE FOR MOLECULAR SCIENCE).
     S,P,D,F,G SHELL TO TOTAL QUARTET ANGULAR MOMENTUM SUM 5,
        ERIC PROGRAM BY GRAHAM FLETCHER (ELORET AND NASA ADVANCED
        SUPERCOMPUTING DIVISION, AMES RESEARCH CENTER).
     S,P,D,F,G,L SHELL GENERAL RYS QUADRATURE PROGRAMMED BY
        MICHEL DUPUIS (PACIFIC NORTHWEST NATIONAL LABORATORY).

          --------------------
          2 ELECTRON INTEGRALS
          --------------------

 THE -PK- OPTION IS OFF, THE INTEGRALS ARE NOT IN SUPERMATRIX FORM.
 STORING   15000 INTEGRALS/RECORD ON DISK, USING 12 BYTES/INTEGRAL.
 TWO ELECTRON INTEGRAL EVALUATION REQUIRES   90516 WORDS OF MEMORY.
 SCHWARZ INEQUALITY OVERHEAD:       951 INTEGRALS, T=        0.09
 II,JST,KST,LST =  1  1  1  1 NREC =         1 INTLOC =    1
 II,JST,KST,LST =  2  1  1  1 NREC =         1 INTLOC =    2
 II,JST,KST,LST =  3  1  1  1 NREC =         1 INTLOC =   34
 II,JST,KST,LST =  4  1  1  1 NREC =         1 INTLOC =  214
 II,JST,KST,LST =  5  1  1  1 NREC =         1 INTLOC =  425
 II,JST,KST,LST =  6  1  1  1 NREC =         1 INTLOC = 3653
 II,JST,KST,LST =  7  1  1  1 NREC =         1 INTLOC = 5260
 II,JST,KST,LST =  8  1  1  1 NREC =         1 INTLOC = 7218
 II,JST,KST,LST =  9  1  1  1 NREC =         1 INTLOC = 9587
 II,JST,KST,LST = 10  1  1  1 NREC =         1 INTLOC =10376
 II,JST,KST,LST = 11  1  1  1 NREC =         2 INTLOC =  319
 II,JST,KST,LST = 12  1  1  1 NREC =         2 INTLOC =10214
 II,JST,KST,LST = 13  1  1  1 NREC =         4 INTLOC = 5266
 II,JST,KST,LST = 14  1  1  1 NREC =         6 INTLOC = 4065
 II,JST,KST,LST = 15  1  1  1 NREC =        10 INTLOC = 5724
 SCHWARZ INEQUALITY TEST SKIPPED        2223 INTEGRAL BLOCKS.
 TOTAL NUMBER OF NONZERO TWO-ELECTRON INTEGRALS =              204110
         14 INTEGRAL RECORDS WERE STORED ON DISK FILE  8.
  ...... END OF TWO-ELECTRON INTEGRALS .....
 STEP CPU TIME =     0.56 TOTAL CPU TIME =        0.6 (    0.0 MIN)
 TOTAL WALL CLOCK TIME=        0.6 SECONDS, CPU UTILIZATION IS  96.72%

          --------------------------
                 RHF SCF CALCULATION
          --------------------------

     NUCLEAR ENERGY =       245.7973405973
     MAXIT =   30     NPUNCH=    2
     EXTRAP=T  DAMP=F  SHIFT=F  RSTRCT=F  DIIS=F  DEM=F  SOSCF=T
     DENSITY MATRIX CONV=  1.00E-05
     SOSCF WILL OPTIMIZE     200 ORBITAL ROTATIONS, SOGTOL=   0.250
     MEMORY REQUIRED FOR RHF ITERS=     46256 WORDS.

 ITER EX DEM     TOTAL ENERGY        E CHANGE  DENSITY CHANGE     ORB. GRAD
   1  0  0    -7378.5846735232 -7378.5846735232   2.742020699   0.000000000
          ---------------START SECOND ORDER SCF---------------
   2  1  0    -7383.4888656952    -4.9041921720   0.115265320   0.136746904
   3  2  0    -7383.4974396078    -0.0085739127   0.038090078   0.012090561
   4  3  0    -7383.4979811232    -0.0005415154   0.007285888   0.008513928
   5  4  0    -7383.4980157945    -0.0000346713   0.001058868   0.001190388
   6  5  0    -7383.4980167415    -0.0000009470   0.000210239   0.000108554
   7  6  0    -7383.4980167690    -0.0000000274   0.000047840   0.000038727
   8  7  0    -7383.4980167698    -0.0000000008   0.000002693   0.000001735
   9  8  0    -7383.4980167698    -0.0000000000   0.000000679   0.000000201

          -----------------
          DENSITY CONVERGED
          -----------------
     TIME TO FORM FOCK OPERATORS=       0.1 SECONDS (       0.0 SEC/ITER)
     TIME TO SOLVE SCF EQUATIONS=       0.0 SECONDS (       0.0 SEC/ITER)

 FINAL RHF ENERGY IS    -7383.4980167698 AFTER   9 ITERATIONS

          ------------
          EIGENVECTORS
          ------------

                      1          2          3          4          5
                -1175.2537  -174.5570  -167.4387  -167.4379  -167.4379
                     A          A          A          A          A   
    1  CL 1  S    0.000000   0.000003   0.000001   0.000000  -0.000000
    2  CL 1  S   -0.000000  -0.000008  -0.000002   0.000000   0.000000
    3  CL 1  X    0.000000   0.000015   0.000003  -0.000000  -0.000000
    4  CL 1  Y   -0.000000  -0.000000  -0.000000  -0.000000   0.000001
    5  CL 1  Z    0.000000   0.000000   0.000000   0.000001   0.000000
    6  CL 1  S    0.000001   0.000060   0.000013  -0.000000  -0.000000
    7  CL 1  X   -0.000002  -0.000080  -0.000017   0.000000   0.000000
    8  CL 1  Y    0.000000   0.000000   0.000000   0.000002  -0.000003
    9  CL 1  Z   -0.000000  -0.000000  -0.000000  -0.000003  -0.000002
   10  C  2  S   -0.000004  -0.000159  -0.000033   0.000000   0.000000
   11  C  2  S    0.000018   0.000753   0.000175  -0.000000  -0.000000
   12  C  2  X   -0.000030  -0.001211  -0.000235  -0.000000  -0.000000
   13  C  2  Y    0.000000   0.000000   0.000000  -0.000012   0.000022
   14  C  2  Z   -0.000000  -0.000004  -0.000001   0.000022   0.000012
   15  H  3  S    0.000006   0.000233   0.000023   0.000023   0.000032
   16  H  4  S    0.000006   0.000233   0.000023  -0.000039   0.000004
   17  H  5  S    0.000006   0.000233   0.000023   0.000016  -0.000036
   18  I  6  S    1.001020  -0.430127   0.000168  -0.000000  -0.000000
   19  I  6  S   -0.002786   1.007810  -0.000399   0.000000   0.000000
   20  I  6  X    0.000001   0.000400   1.006795  -0.003154  -0.001412
   21  I  6  Y   -0.000000  -0.000000  -0.000279  -0.484374   0.882630
   22  I  6  Z    0.000000   0.000001   0.003445   0.882625   0.484372
   23  I  6  S    0.001612   0.074317  -0.000018   0.000000   0.000000
   24  I  6  X   -0.000002  -0.000046  -0.016072   0.000050   0.000023
   25  I  6  Y    0.000000   0.000000   0.000004   0.007734  -0.014093
   26  I  6  Z   -0.000000  -0.000000  -0.000055  -0.014093  -0.007734
   27  I  6 XX    0.001022   0.055617  -0.000001  -0.000000  -0.000000
   28  I  6 YY    0.001022   0.055599  -0.000020   0.000000  -0.000000
   29  I  6 ZZ    0.001022   0.055599  -0.000020   0.000000   0.000000
   30  I  6 XY   -0.000000  -0.000000  -0.000000  -0.000005   0.000010
   31  I  6 XZ    0.000000   0.000000   0.000000   0.000010   0.000005
   32  I  6 YZ   -0.000000  -0.000000  -0.000000  -0.000000   0.000000
   33  I  6  S   -0.006166  -0.263708   0.000019  -0.000000  -0.000000
   34  I  6  X    0.000002   0.000082   0.010314  -0.000032  -0.000014
   35  I  6  Y   -0.000000  -0.000000  -0.000003  -0.004957   0.009032
   36  I  6  Z    0.000000   0.000000   0.000035   0.009032   0.004957
   37  I  6 XX    0.002077   0.087549  -0.000003   0.000000   0.000000
   38  I  6 YY    0.002078   0.087569   0.000005  -0.000000   0.000000
   39  I  6 ZZ    0.002078   0.087569   0.000005  -0.000000  -0.000000
   40  I  6 XY    0.000000   0.000000   0.000000   0.000001  -0.000002
   41  I  6 XZ   -0.000000  -0.000000  -0.000000  -0.000002  -0.000001
   42  I  6 YZ   -0.000000  -0.000000   0.000000  -0.000000  -0.000000
   43  I  6  S   -0.000306  -0.012522  -0.000060  -0.000000  -0.000000
   44  I  6  X   -0.000010  -0.000420  -0.001497   0.000004   0.000002
   45  I  6  Y    0.000000   0.000000   0.000000   0.000683  -0.001245
   46  I  6  Z   -0.000000  -0.000001  -0.000005  -0.001245  -0.000683

                      6          7          8          9         10
                 -104.3758   -33.4811   -31.3407   -31.3383   -31.3383
                     A          A          A          A          A   
    1  CL 1  S    0.998247  -0.000007   0.000003   0.000000   0.000000
    2  CL 1  S    0.005115   0.000019  -0.000009  -0.000000  -0.000000
    3  CL 1  X   -0.000030  -0.000036   0.000015  -0.000000  -0.000000
    4  CL 1  Y    0.000000   0.000000  -0.000000  -0.000002   0.000003
    5  CL 1  Z   -0.000000  -0.000000   0.000000   0.000003   0.000002
    6  CL 1  S   -0.000425  -0.000152   0.000066   0.000000  -0.000000
    7  CL 1  X    0.000019   0.000204  -0.000084   0.000000   0.000000
    8  CL 1  Y   -0.000000  -0.000000   0.000000   0.000012  -0.000013
    9  CL 1  Z    0.000000   0.000001  -0.000000  -0.000013  -0.000012
   10  C  2  S   -0.000006   0.000410  -0.000171   0.000000  -0.000000
   11  C  2  S    0.000030  -0.001987   0.000926  -0.000000  -0.000000
   12  C  2  X    0.000044   0.003154  -0.001240  -0.000000  -0.000000
   13  C  2  Y   -0.000000  -0.000001   0.000000  -0.000089   0.000098
   14  C  2  Z    0.000000   0.000011  -0.000004   0.000098   0.000089
   15  H  3  S    0.000005  -0.000608   0.000127   0.000079   0.000193
   16  H  4  S    0.000005  -0.000608   0.000127  -0.000207  -0.000028
   17  H  5  S    0.000005  -0.000608   0.000127   0.000127  -0.000165
   18  I  6  S   -0.000000   0.223628  -0.000589   0.000000   0.000000
   19  I  6  S    0.000000  -0.630873   0.001664  -0.000000  -0.000000
   20  I  6  X   -0.000000  -0.001451  -0.543657   0.001482   0.001134
   21  I  6  Y    0.000000   0.000000   0.000154   0.364759  -0.403202
   22  I  6  Z   -0.000000  -0.000005  -0.001859  -0.403199  -0.364757
   23  I  6  S   -0.000000   0.303213  -0.000797   0.000000   0.000000
   24  I  6  X    0.000000   0.002917   1.086745  -0.002963  -0.002266
   25  I  6  Y   -0.000000  -0.000001  -0.000307  -0.729184   0.806035
   26  I  6  Z    0.000000   0.000010   0.003717   0.806029   0.729181
   27  I  6 XX   -0.000000   0.225936  -0.000077  -0.000002  -0.000002
   28  I  6 YY   -0.000000   0.225612  -0.000852   0.000000  -0.000000
   29  I  6 ZZ   -0.000000   0.225612  -0.000852   0.000002   0.000002
   30  I  6 XY    0.000000  -0.000000  -0.000000  -0.000298   0.000329
   31  I  6 XZ   -0.000000   0.000001   0.000003   0.000329   0.000298
   32  I  6 YZ   -0.000000  -0.000000  -0.000000  -0.000001   0.000001
   33  I  6  S    0.000002   0.830664  -0.002396   0.000000   0.000000
   34  I  6  X   -0.000000   0.000143   0.090012  -0.000245  -0.000187
   35  I  6  Y    0.000000  -0.000000  -0.000025  -0.060234   0.066583
   36  I  6  Z   -0.000000   0.000000   0.000308   0.066582   0.060234
   37  I  6 XX   -0.000001  -0.256332   0.000883  -0.000000  -0.000000
   38  I  6 YY   -0.000001  -0.256446   0.000773   0.000000   0.000000
   39  I  6 ZZ   -0.000001  -0.256446   0.000773   0.000000   0.000000
   40  I  6 XY   -0.000000  -0.000000  -0.000000  -0.000054   0.000060
   41  I  6 XZ    0.000000   0.000000   0.000000   0.000060   0.000054
   42  I  6 YZ   -0.000000  -0.000000  -0.000000  -0.000000   0.000000
   43  I  6  S    0.000002   0.033001  -0.000420  -0.000000  -0.000000
   44  I  6  X    0.000003   0.001070  -0.008015   0.000021   0.000016
   45  I  6  Y   -0.000000  -0.000000   0.000002   0.005093  -0.005629
   46  I  6  Z    0.000000   0.000004  -0.000027  -0.005629  -0.005093

                     11         12         13         14         15
                  -22.0305   -22.0295   -22.0295   -22.0266   -22.0266
                     A          A          A          A          A   
    1  CL 1  S   -0.000001  -0.000000   0.000000   0.000000   0.000000
    2  CL 1  S    0.000004   0.000000  -0.000000   0.000000   0.000000
    3  CL 1  X   -0.000006  -0.000000   0.000000   0.000000  -0.000000
    4  CL 1  Y    0.000000  -0.000001  -0.000001   0.000000   0.000000
    5  CL 1  Z   -0.000000   0.000001  -0.000001  -0.000000   0.000000
    6  CL 1  S   -0.000029  -0.000000   0.000000  -0.000000   0.000000
    7  CL 1  X    0.000033   0.000000  -0.000000  -0.000000   0.000000
    8  CL 1  Y   -0.000000   0.000003   0.000003  -0.000000  -0.000000
    9  CL 1  Z    0.000000  -0.000003   0.000003   0.000000  -0.000000
   10  C  2  S    0.000051  -0.000000   0.000000   0.000000   0.000000
   11  C  2  S   -0.000257   0.000000   0.000000  -0.000000  -0.000000
   12  C  2  X    0.000331  -0.000000   0.000000  -0.000000   0.000000
   13  C  2  Y   -0.000000  -0.000037  -0.000035  -0.000004  -0.000014
   14  C  2  Z    0.000001   0.000035  -0.000037   0.000014  -0.000004
   15  H  3  S    0.000036   0.000011  -0.000034  -0.000016   0.000015
   16  H  4  S    0.000036  -0.000035   0.000007   0.000021   0.000006
   17  H  5  S    0.000036   0.000024   0.000027  -0.000005  -0.000021
   18  I  6  S   -0.000058   0.000000  -0.000000   0.000000   0.000000
   19  I  6  S    0.000166  -0.000000   0.000000  -0.000000  -0.000000
   20  I  6  X    0.000299   0.000001  -0.000001  -0.000000   0.000000
   21  I  6  Y   -0.000000   0.000193   0.000185  -0.000000  -0.000000
   22  I  6  Z    0.000001  -0.000185   0.000193   0.000000  -0.000000
   23  I  6  S   -0.000092   0.000000  -0.000000   0.000000   0.000000
   24  I  6  X   -0.000631  -0.000001   0.000001   0.000000  -0.000000
   25  I  6  Y    0.000000  -0.000413  -0.000395   0.000000   0.000000
   26  I  6  Z   -0.000002   0.000395  -0.000413  -0.000000   0.000000
   27  I  6 XX    0.974158   0.004331  -0.003843  -0.000003  -0.000010
   28  I  6 YY   -0.487191  -0.000361  -0.000356   0.052412   0.842111
   29  I  6 ZZ   -0.487174  -0.003970   0.004199  -0.052409  -0.842101
   30  I  6 XY   -0.000475   0.704122   0.673324  -0.003298   0.000518
   31  I  6 XZ    0.005771  -0.673310   0.704112   0.000443   0.003320
   32  I  6 YZ   -0.000001   0.002565   0.002126   0.972380  -0.060518
   33  I  6  S   -0.000108   0.000000   0.000000   0.000000  -0.000000
   34  I  6  X   -0.000003   0.000000  -0.000000   0.000000  -0.000000
   35  I  6  Y    0.000000   0.000020   0.000019   0.000000   0.000000
   36  I  6  Z   -0.000000  -0.000019   0.000020  -0.000000   0.000000
   37  I  6 XX    0.069338   0.000308  -0.000273  -0.000000  -0.000001
   38  I  6 YY   -0.034610  -0.000026  -0.000025   0.003725   0.059849
   39  I  6 ZZ   -0.034609  -0.000282   0.000299  -0.003725  -0.059849
   40  I  6 XY   -0.000034   0.050073   0.047882  -0.000234   0.000037
   41  I  6 XZ    0.000410  -0.047881   0.050072   0.000032   0.000236
   42  I  6 YZ   -0.000000   0.000182   0.000151   0.069108  -0.004301
   43  I  6  S    0.000073  -0.000000   0.000000   0.000000  -0.000000
   44  I  6  X    0.000106   0.000000  -0.000000  -0.000000   0.000000
   45  I  6  Y   -0.000000   0.000010   0.000009  -0.000000  -0.000001
   46  I  6  Z    0.000000  -0.000009   0.000010   0.000001  -0.000000

                     16         17         18         19         20
                  -11.0768    -9.8503    -7.3638    -7.3613    -7.3613
                     A          A          A          A          A   
    1  CL 1  S    0.000003  -0.364442  -0.001676  -0.000000  -0.000000
    2  CL 1  S   -0.000016   1.053314   0.004928   0.000000   0.000000
    3  CL 1  X   -0.000162  -0.003950   0.989458  -0.002634  -0.002195
    4  CL 1  Y    0.000000   0.000001  -0.000272  -0.692059   0.708016
    5  CL 1  Z   -0.000001  -0.000014   0.003416   0.708011   0.692056
    6  CL 1  S   -0.001126   0.037973  -0.001631   0.000000   0.000000
    7  CL 1  X    0.001330  -0.001619   0.041917  -0.000105  -0.000087
    8  CL 1  Y   -0.000000   0.000000  -0.000012  -0.027520   0.028154
    9  CL 1  Z    0.000005  -0.000006   0.000145   0.028154   0.027520
   10  C  2  S    0.995460   0.000718  -0.000922   0.000000  -0.000000
   11  C  2  S    0.021815  -0.002561   0.004644  -0.000000   0.000000
   12  C  2  X   -0.000008  -0.003573   0.005436   0.000002   0.000002
   13  C  2  Y    0.000000   0.000001  -0.000001   0.000553  -0.000566
   14  C  2  Z   -0.000000  -0.000012   0.000019  -0.000566  -0.000553
   15  H  3  S   -0.004217  -0.000489   0.000238  -0.000301  -0.000823
   16  H  4  S   -0.004217  -0.000489   0.000238   0.000863   0.000150
   17  H  5  S   -0.004217  -0.000489   0.000238  -0.000562   0.000672
   18  I  6  S    0.000011   0.000001  -0.000000   0.000000  -0.000000
   19  I  6  S   -0.000037  -0.000004   0.000002  -0.000000   0.000000
   20  I  6  X    0.000022   0.000001   0.000000   0.000000   0.000000
   21  I  6  Y   -0.000000  -0.000000   0.000000   0.000000  -0.000000
   22  I  6  Z    0.000000   0.000000   0.000000  -0.000000  -0.000000
   23  I  6  S    0.000052   0.000006  -0.000006  -0.000000  -0.000000
   24  I  6  X   -0.000070  -0.000005   0.000001  -0.000000  -0.000000
   25  I  6  Y    0.000000   0.000000  -0.000000  -0.000001   0.000001
   26  I  6  Z   -0.000000  -0.000000   0.000000   0.000001   0.000001
   27  I  6 XX    0.000055   0.000007  -0.000008   0.000000   0.000000
   28  I  6 YY    0.000031   0.000003  -0.000003  -0.000000   0.000000
   29  I  6 ZZ    0.000031   0.000003  -0.000003   0.000000  -0.000000
   30  I  6 XY   -0.000000  -0.000000   0.000000   0.000000  -0.000000
   31  I  6 XZ    0.000000   0.000000  -0.000000  -0.000000  -0.000000
   32  I  6 YZ   -0.000000   0.000000  -0.000000  -0.000000  -0.000000
   33  I  6  S   -0.000623  -0.000070   0.000106   0.000000   0.000000
   34  I  6  X    0.000103   0.000007  -0.000004   0.000000   0.000000
   35  I  6  Y   -0.000000  -0.000000   0.000000   0.000002  -0.000002
   36  I  6  Z    0.000000   0.000000  -0.000000  -0.000002  -0.000002
   37  I  6 XX    0.000276   0.000027  -0.000048  -0.000000  -0.000000
   38  I  6 YY    0.000339   0.000038  -0.000062   0.000000  -0.000000
   39  I  6 ZZ    0.000339   0.000038  -0.000062  -0.000000   0.000000
   40  I  6 XY    0.000000   0.000000  -0.000000  -0.000001   0.000001
   41  I  6 XZ   -0.000000  -0.000000   0.000000   0.000001   0.000001
   42  I  6 YZ    0.000000   0.000000  -0.000000   0.000000   0.000000
   43  I  6  S   -0.001014  -0.000134   0.000236   0.000000   0.000000
   44  I  6  X   -0.001334  -0.000182   0.000312  -0.000000  -0.000000
   45  I  6  Y    0.000000   0.000000  -0.000000  -0.000053   0.000055
   46  I  6  Z   -0.000005  -0.000001   0.000001   0.000055   0.000053

                     21         22         23         24         25
                   -5.4517    -4.0129    -4.0089    -4.0089    -1.2230
                     A          A          A          A          A   
    1  CL 1  S    0.000007  -0.000039   0.000000  -0.000000   0.000048
    2  CL 1  S   -0.000019   0.000099  -0.000000   0.000000  -0.000140
    3  CL 1  X    0.000034  -0.000181   0.000000  -0.000000   0.000109
    4  CL 1  Y   -0.000000   0.000000  -0.000015  -0.000061  -0.000000
    5  CL 1  Z    0.000000  -0.000001  -0.000061   0.000015   0.000000
    6  CL 1  S    0.000095  -0.000684   0.000000  -0.000000   0.000637
    7  CL 1  X   -0.000127   0.000818  -0.000001   0.000000  -0.000503
    8  CL 1  Y    0.000000  -0.000000   0.000057   0.000227   0.000000
    9  CL 1  Z   -0.000000   0.000003   0.000227  -0.000057  -0.000002
   10  C  2  S   -0.000222   0.002821  -0.000000   0.000000  -0.006207
   11  C  2  S    0.000818  -0.014440   0.000000   0.000000   0.022515
   12  C  2  X   -0.001317   0.017865   0.000007  -0.000002  -0.018445
   13  C  2  Y    0.000000  -0.000005  -0.000528  -0.002097   0.000005
   14  C  2  Z   -0.000005   0.000061  -0.002097   0.000528  -0.000063
   15  H  3  S    0.000102  -0.002477  -0.003184  -0.000642   0.002027
   16  H  4  S    0.000102  -0.002477   0.002148  -0.002436   0.002027
   17  H  5  S    0.000102  -0.002477   0.001036   0.003078   0.002027
   18  I  6  S   -0.099662   0.000782  -0.000000   0.000000   0.000230
   19  I  6  S    0.291129  -0.002277   0.000000  -0.000000  -0.000692
   20  I  6  X    0.002414   0.326112  -0.001062   0.000362  -0.001054
   21  I  6  Y   -0.000001  -0.000092   0.079722   0.316703   0.000000
   22  I  6  Z    0.000008   0.001117   0.316701  -0.079721  -0.000004
   23  I  6  S   -0.176958   0.001366  -0.000000   0.000000   0.000512
   24  I  6  X   -0.006951  -0.942746   0.003070  -0.001046   0.003059
   25  I  6  Y    0.000002   0.000265  -0.230495  -0.915659  -0.000001
   26  I  6  Z   -0.000024  -0.003228  -0.915654   0.230492   0.000010
   27  I  6 XX   -0.132395  -0.000763   0.000008  -0.000003  -0.426453
   28  I  6 YY   -0.131281   0.001906   0.000001   0.000002   0.213803
   29  I  6 ZZ   -0.131281   0.001906  -0.000009   0.000001   0.213795
   30  I  6 XY    0.000000   0.000001  -0.000352  -0.001397   0.000207
   31  I  6 XZ   -0.000004  -0.000011  -0.001397   0.000352  -0.002530
   32  I  6 YZ    0.000000   0.000000  -0.000002  -0.000004   0.000000
   33  I  6  S   -0.336023   0.003495  -0.000000   0.000000  -0.001212
   34  I  6  X    0.008950   1.224895  -0.003990   0.001360  -0.004006
   35  I  6  Y   -0.000003  -0.000344   0.299557   1.190015   0.000001
   36  I  6  Z    0.000031   0.004194   1.190009  -0.299554  -0.000014
   37  I  6 XX    0.605403  -0.001049  -0.000019   0.000007   1.060392
   38  I  6 YY    0.602788  -0.007526  -0.000002  -0.000004  -0.530743
   39  I  6 ZZ    0.602788  -0.007526   0.000021  -0.000002  -0.530725
   40  I  6 XY   -0.000001  -0.000002   0.000839   0.003333  -0.000515
   41  I  6 XZ    0.000010   0.000026   0.003333  -0.000839   0.006287
   42  I  6 YZ   -0.000000  -0.000000   0.000005   0.000010  -0.000001
   43  I  6  S   -0.005990   0.005556   0.000000  -0.000000  -0.001860
   44  I  6  X    0.000937   0.146180  -0.000450   0.000153  -0.004318
   45  I  6  Y   -0.000000  -0.000041   0.033809   0.134308   0.000001
   46  I  6  Z    0.000003   0.000500   0.134307  -0.033808  -0.000015

                     26         27         28         29         30
                   -1.2204    -1.2204    -1.2137    -1.2137    -0.7680
                     A          A          A          A          A   
    1  CL 1  S    0.000000  -0.000000  -0.000000  -0.000000   0.034024
    2  CL 1  S   -0.000000   0.000000   0.000000   0.000000  -0.110412
    3  CL 1  X   -0.000000  -0.000000  -0.000000  -0.000000   0.021093
    4  CL 1  Y   -0.000014   0.000020   0.000001  -0.000003  -0.000006
    5  CL 1  Z    0.000020   0.000014   0.000003   0.000001   0.000073
    6  CL 1  S    0.000000  -0.000000  -0.000000   0.000000   0.340375
    7  CL 1  X    0.000000   0.000000   0.000000   0.000000  -0.059908
    8  CL 1  Y    0.000077  -0.000109  -0.000004   0.000016   0.000016
    9  CL 1  Z   -0.000109  -0.000077  -0.000016  -0.000004  -0.000207
   10  C  2  S   -0.000000  -0.000000   0.000000   0.000000  -0.194856
   11  C  2  S    0.000000   0.000000  -0.000000  -0.000000   0.591844
   12  C  2  X   -0.000013  -0.000008   0.000001   0.000000   0.011927
   13  C  2  Y   -0.002537   0.003591  -0.000082   0.000359  -0.000002
   14  C  2  Z    0.003591   0.002537  -0.000359  -0.000082   0.000040
   15  H  3  S    0.001569   0.002804   0.001005  -0.000225   0.183507
   16  H  4  S   -0.003213  -0.000043  -0.000697  -0.000758   0.183509
   17  H  5  S    0.001644  -0.002761  -0.000308   0.000983   0.183507
   18  I  6  S   -0.000000  -0.000000  -0.000000  -0.000000   0.002417
   19  I  6  S    0.000000   0.000000   0.000000   0.000000  -0.007236
   20  I  6  X    0.000003   0.000002  -0.000000  -0.000000  -0.006167
   21  I  6  Y    0.000618  -0.000874   0.000000  -0.000001   0.000002
   22  I  6  Z   -0.000874  -0.000618   0.000001   0.000000  -0.000021
   23  I  6  S   -0.000000  -0.000000  -0.000000  -0.000000   0.004627
   24  I  6  X   -0.000009  -0.000005   0.000000   0.000000   0.018275
   25  I  6  Y   -0.001805   0.002555  -0.000001   0.000004  -0.000005
   26  I  6  Z    0.002555   0.001805  -0.000004  -0.000001   0.000063
   27  I  6 XX    0.002187   0.001291  -0.000004   0.000004   0.013851
   28  I  6 YY   -0.000264   0.000529   0.163941  -0.331539  -0.001759
   29  I  6 ZZ   -0.001923  -0.001820  -0.163938   0.331535  -0.001759
   30  I  6 XY    0.246424  -0.348830   0.001463   0.000101  -0.000005
   31  I  6 XZ   -0.348824  -0.246418   0.000979  -0.001262   0.000062
   32  I  6 YZ    0.000526  -0.001290  -0.382825  -0.189304  -0.000000
   33  I  6  S    0.000000  -0.000000   0.000000   0.000000   0.001584
   34  I  6  X    0.000012   0.000007  -0.000000  -0.000000  -0.025681
   35  I  6  Y    0.002392  -0.003387   0.000001  -0.000006   0.000007
   36  I  6  Z   -0.003387  -0.002392   0.000006   0.000001  -0.000088
   37  I  6 XX   -0.005436  -0.003209   0.000009  -0.000009  -0.040071
   38  I  6 YY    0.000657  -0.001314  -0.407480   0.824047  -0.000688
   39  I  6 ZZ    0.004779   0.004523   0.407471  -0.824038  -0.000689
   40  I  6 XY   -0.612438   0.866945  -0.003637  -0.000251   0.000013
   41  I  6 XZ    0.866932   0.612423  -0.002433   0.003137  -0.000156
   42  I  6 YZ   -0.001307   0.003207   0.951521   0.470520   0.000000
   43  I  6  S   -0.000000  -0.000000  -0.000000  -0.000000   0.061008
   44  I  6  X    0.000000   0.000000   0.000000   0.000000   0.032927
   45  I  6  Y    0.000058  -0.000082  -0.000004   0.000018  -0.000009
   46  I  6  Z   -0.000082  -0.000058  -0.000018  -0.000004   0.000113

                     31         32         33         34         35
                   -0.6261    -0.4139    -0.4139    -0.3552    -0.1504
                     A          A          A          A          A   
    1  CL 1  S    0.088704  -0.000000  -0.000000   0.010781   0.011490
    2  CL 1  S   -0.282127   0.000001   0.000000  -0.033310  -0.035065
    3  CL 1  X   -0.001503   0.000067   0.000024  -0.032131  -0.174004
    4  CL 1  Y    0.000000   0.008520  -0.018692   0.000009   0.000048
    5  CL 1  Z   -0.000005  -0.018692  -0.008520  -0.000110  -0.000601
    6  CL 1  S    0.955853  -0.000002  -0.000001   0.128175   0.143010
    7  CL 1  X    0.002139  -0.000226  -0.000082   0.108655   0.624763
    8  CL 1  Y   -0.000001  -0.028725   0.063018  -0.000030  -0.000171
    9  CL 1  Z    0.000007   0.063017   0.028726   0.000373   0.002157
   10  C  2  S    0.084160  -0.000000   0.000000   0.034275  -0.008344
   11  C  2  S   -0.265539   0.000001  -0.000001  -0.116229   0.023438
   12  C  2  X    0.095803  -0.001853  -0.000671  -0.175292  -0.480915
   13  C  2  Y   -0.000027  -0.236432   0.518685   0.000047   0.000134
   14  C  2  Z    0.000332   0.518682   0.236431  -0.000615  -0.001653
   15  H  3  S   -0.094473   0.300242   0.358296  -0.048207   0.023248
   16  H  4  S   -0.094477  -0.460416   0.080868  -0.048189   0.023247
   17  H  5  S   -0.094475   0.160174  -0.439167  -0.048195   0.023248
   18  I  6  S   -0.002649   0.000001   0.000000   0.027886  -0.007918
   19  I  6  S    0.007876  -0.000002  -0.000001  -0.082127   0.023224
   20  I  6  X    0.005558   0.000017   0.000006  -0.004598  -0.045029
   21  I  6  Y   -0.000002   0.002271  -0.004982   0.000001   0.000013
   22  I  6  Z    0.000019  -0.004982  -0.002271  -0.000016  -0.000154
   23  I  6  S   -0.005105   0.000001   0.000001   0.054738  -0.015794
   24  I  6  X   -0.016481  -0.000051  -0.000018   0.013635   0.133806
   25  I  6  Y    0.000005  -0.006742   0.014791  -0.000004  -0.000038
   26  I  6  Z   -0.000056   0.014791   0.006742   0.000046   0.000458
   27  I  6 XX   -0.009431  -0.000020  -0.000007   0.041842  -0.006193
   28  I  6 YY   -0.000984   0.000064  -0.000319   0.040185  -0.014536
   29  I  6 ZZ   -0.000984  -0.000041   0.000328   0.040185  -0.014536
   30  I  6 XY    0.000003  -0.001580   0.003463  -0.000001  -0.000003
   31  I  6 XZ   -0.000033   0.003464   0.001578   0.000006   0.000033
   32  I  6 YZ    0.000000   0.000361   0.000083  -0.000000  -0.000000
   33  I  6  S   -0.002334   0.000000   0.000000   0.024597  -0.004865
   34  I  6  X    0.023091   0.000072   0.000026  -0.018911  -0.186445
   35  I  6  Y   -0.000006   0.009414  -0.020653   0.000005   0.000052
   36  I  6  Z    0.000079  -0.020652  -0.009414  -0.000064  -0.000638
   37  I  6 XX    0.029310   0.000051   0.000018  -0.154093   0.026443
   38  I  6 YY    0.007908  -0.000164   0.000813  -0.149854   0.047850
   39  I  6 ZZ    0.007908   0.000104  -0.000836  -0.149854   0.047850
   40  I  6 XY   -0.000007   0.004026  -0.008824   0.000001   0.000007
   41  I  6 XZ    0.000085  -0.008825  -0.004019  -0.000017  -0.000085
   42  I  6 YZ   -0.000000  -0.000920  -0.000213   0.000000   0.000000
   43  I  6  S   -0.078477   0.000018   0.000010   0.990556  -0.301596
   44  I  6  X   -0.035846  -0.000139  -0.000050   0.039229   0.415501
   45  I  6  Y    0.000010  -0.018202   0.039932  -0.000011  -0.000117
   46  I  6  Z   -0.000123   0.039932   0.018203   0.000133   0.001422

                     36         37         38         39         40
                   -0.0744    -0.0744    -0.0131    -0.0131     0.0259
                     A          A          A          A          A   
    1  CL 1  S   -0.000000   0.000000   0.000000  -0.000000   0.004216
    2  CL 1  S    0.000000  -0.000000  -0.000000   0.000000  -0.012488
    3  CL 1  X   -0.000347   0.000896  -0.000036   0.000047   0.175855
    4  CL 1  Y   -0.265895  -0.079343  -0.014963  -0.009578  -0.000048
    5  CL 1  Z    0.079342  -0.265893   0.009578  -0.014964   0.000606
    6  CL 1  S   -0.000000   0.000000   0.000000  -0.000000   0.055265
    7  CL 1  X    0.001280  -0.003308   0.000136  -0.000177  -0.654728
    8  CL 1  Y    0.982040   0.293041   0.055817   0.035728   0.000180
    9  CL 1  Z   -0.293038   0.982035  -0.035728   0.055818  -0.002255
   10  C  2  S   -0.000000   0.000000  -0.000000   0.000000   0.034142
   11  C  2  S    0.000000  -0.000001   0.000000  -0.000001  -0.091025
   12  C  2  X   -0.000082   0.000212  -0.000131   0.000173  -0.076770
   13  C  2  Y   -0.063068  -0.018820  -0.052591  -0.033664   0.000020
   14  C  2  Z    0.018819  -0.063068   0.033663  -0.052593  -0.000268
   15  H  3  S   -0.008532  -0.054369   0.005682  -0.045688  -0.118662
   16  H  4  S   -0.042820   0.034574  -0.042411   0.017925  -0.118655
   17  H  5  S    0.051352   0.019797   0.036727   0.027768  -0.118657
   18  I  6  S   -0.000000   0.000000  -0.000000   0.000000   0.000544
   19  I  6  S    0.000000  -0.000000   0.000000  -0.000000  -0.001572
   20  I  6  X    0.000008  -0.000021  -0.000211   0.000278  -0.079695
   21  I  6  Y    0.006442   0.001922  -0.085412  -0.054672   0.000022
   22  I  6  Z   -0.001922   0.006442   0.054671  -0.085412  -0.000274
   23  I  6  S   -0.000000   0.000000  -0.000000   0.000000   0.001083
   24  I  6  X   -0.000025   0.000063   0.000629  -0.000826   0.236943
   25  I  6  Y   -0.019152  -0.005715   0.253992   0.162578  -0.000066
   26  I  6  Z    0.005715  -0.019152  -0.162577   0.253991   0.000814
   27  I  6 XX   -0.000001   0.000002  -0.000000   0.000000  -0.000122
   28  I  6 YY    0.000025   0.000015   0.000016   0.000017   0.001269
   29  I  6 ZZ   -0.000025  -0.000017  -0.000016  -0.000017   0.001269
   30  I  6 XY   -0.000333  -0.000099  -0.000066  -0.000042   0.000000
   31  I  6 XZ    0.000100  -0.000333   0.000042  -0.000066  -0.000006
   32  I  6 YZ    0.000016  -0.000029   0.000019  -0.000019  -0.000000
   33  I  6  S    0.000000   0.000000   0.000000  -0.000000   0.000750
   34  I  6  X    0.000035  -0.000088  -0.000875   0.001150  -0.329716
   35  I  6  Y    0.026671   0.007959  -0.353667  -0.226379   0.000092
   36  I  6  Z   -0.007959   0.026671   0.226377  -0.353666  -0.001133
   37  I  6 XX    0.000002  -0.000005   0.000001  -0.000001  -0.000473
   38  I  6 YY   -0.000065  -0.000038  -0.000041  -0.000043  -0.003999
   39  I  6 ZZ    0.000063   0.000042   0.000040   0.000043  -0.003999
   40  I  6 XY    0.000855   0.000255   0.000190   0.000121  -0.000001
   41  I  6 XZ   -0.000255   0.000854  -0.000122   0.000190   0.000014
   42  I  6 YZ   -0.000040   0.000076  -0.000048   0.000048   0.000000
   43  I  6  S   -0.000000   0.000001  -0.000000   0.000001   0.023542
   44  I  6  X   -0.000081   0.000206   0.002102  -0.002760   0.791267
   45  I  6  Y   -0.062657  -0.018697   0.849101   0.543501  -0.000221
   46  I  6  Z    0.018697  -0.062657  -0.543497   0.849096   0.002718

                     41         42         43         44         45
                    0.4661     0.7989     0.8994     0.8994    11.9461
                     A          A          A          A          A   
    1  CL 1  S   -0.013902  -0.002836  -0.000000   0.000000  -0.000120
    2  CL 1  S    0.040998   0.008646   0.000000  -0.000000   0.000319
    3  CL 1  X   -0.134024  -0.031334   0.000000   0.000003  -0.000580
    4  CL 1  Y    0.000037   0.000008  -0.000724   0.000235   0.000000
    5  CL 1  Z   -0.000463  -0.000108  -0.000235  -0.000724  -0.000002
    6  CL 1  S   -0.188580  -0.037356  -0.000000   0.000001  -0.002125
    7  CL 1  X    0.525048   0.126892  -0.000001  -0.000012   0.002935
    8  CL 1  Y   -0.000144  -0.000034   0.002885  -0.000935  -0.000001
    9  CL 1  Z    0.001813   0.000439   0.000938   0.002886   0.000010
   10  C  2  S    0.009110  -0.214627  -0.000002   0.000005   0.004988
   11  C  2  S   -0.067285   1.472180   0.000014  -0.000041  -0.022915
   12  C  2  X    0.921492   0.052182  -0.000916  -0.003859   0.038565
   13  C  2  Y   -0.000255  -0.000032   1.093198  -0.354764  -0.000011
   14  C  2  Z    0.003168   0.000201   0.354762   1.093193   0.000132
   15  H  3  S    0.034954  -0.749452  -0.713831  -0.751872  -0.007102
   16  H  4  S    0.034954  -0.749417  -0.294251   0.994158  -0.007101
   17  H  5  S    0.034954  -0.749455   1.008061  -0.242226  -0.007101
   18  I  6  S    0.005260  -0.000139   0.000000   0.000000  -0.250097
   19  I  6  S   -0.015342   0.000441  -0.000000  -0.000000   0.768338
   20  I  6  X   -0.048511   0.004726   0.000001   0.000003  -0.000652
   21  I  6  Y    0.000014  -0.000001  -0.000859   0.000279   0.000000
   22  I  6  Z   -0.000166   0.000016  -0.000279  -0.000859  -0.000002
   23  I  6  S    0.010901  -0.000191   0.000000   0.000000  -0.789621
   24  I  6  X    0.144370  -0.014079  -0.000002  -0.000009   0.001998
   25  I  6  Y   -0.000041   0.000004   0.002558  -0.000830  -0.000001
   26  I  6  Z    0.000494  -0.000048   0.000830   0.002558   0.000007
   27  I  6 XX   -0.000267   0.002289  -0.000000  -0.000001  -0.590122
   28  I  6 YY    0.012305  -0.001356   0.000386  -0.000031  -0.589679
   29  I  6 ZZ    0.012305  -0.001356  -0.000385   0.000032  -0.589679
   30  I  6 XY    0.000004  -0.000001   0.000109  -0.000034   0.000000
   31  I  6 XZ   -0.000050   0.000014   0.000037   0.000108  -0.000002
   32  I  6 YZ    0.000000  -0.000000  -0.000035  -0.000445   0.000000
   33  I  6  S   -0.001818  -0.000986  -0.000000  -0.000000   5.408245
   34  I  6  X   -0.200630   0.019619   0.000003   0.000012  -0.002908
   35  I  6  Y    0.000056  -0.000006  -0.003532   0.001146   0.000001
   36  I  6  Z   -0.000686   0.000066  -0.001147  -0.003532  -0.000010
   37  I  6 XX   -0.001266  -0.004643   0.000000   0.000002  -2.002741
   38  I  6 YY   -0.033768   0.004812  -0.001007   0.000080  -2.003909
   39  I  6 ZZ   -0.033768   0.004812   0.001006  -0.000082  -2.003909
   40  I  6 XY   -0.000011   0.000003  -0.000271   0.000084  -0.000000
   41  I  6 XZ    0.000128  -0.000037  -0.000092  -0.000270   0.000005
   42  I  6 YZ   -0.000000   0.000000   0.000092   0.001163  -0.000000
   43  I  6  S    0.215879  -0.005760   0.000000   0.000001   0.377437
   44  I  6  X    0.533772  -0.054326  -0.000009  -0.000037   0.013311
   45  I  6  Y   -0.000150   0.000016   0.010764  -0.003491  -0.000004
   46  I  6  Z    0.001826  -0.000184   0.003495   0.010764   0.000046
 ...... END OF RHF CALCULATION ......
 STEP CPU TIME =     0.06 TOTAL CPU TIME =        0.7 (    0.0 MIN)
 TOTAL WALL CLOCK TIME=        0.7 SECONDS, CPU UTILIZATION IS  97.01%

     ----------------------------------------------------------------
     PROPERTY VALUES FOR THE RHF   SELF-CONSISTENT FIELD WAVEFUNCTION
     ----------------------------------------------------------------

          -----------------
          ENERGY COMPONENTS
          -----------------

         WAVEFUNCTION NORMALIZATION =       1.0000000000

                ONE ELECTRON ENERGY =  -10731.3784295535
                TWO ELECTRON ENERGY =    3102.0830721865
           NUCLEAR REPULSION ENERGY =     245.7973405973
                                      ------------------
                       TOTAL ENERGY =   -7383.4980167698

 ELECTRON-ELECTRON POTENTIAL ENERGY =    3102.0830721865
  NUCLEUS-ELECTRON POTENTIAL ENERGY =  -18262.2151928060
   NUCLEUS-NUCLEUS POTENTIAL ENERGY =     245.7973405973
                                      ------------------
             TOTAL POTENTIAL ENERGY =  -14914.3347800223
               TOTAL KINETIC ENERGY =    7530.8367632525
                 VIRIAL RATIO (V/T) =       1.9804352755

          ---------------------------------------
          MULLIKEN AND LOWDIN POPULATION ANALYSES
          ---------------------------------------

     ATOMIC MULLIKEN POPULATION IN EACH MOLECULAR ORBITAL

                      1          2          3          4          5

                  2.000000   2.000000   2.000000   2.000000   2.000000

    1             0.000000  -0.000000  -0.000000  -0.000000  -0.000000
    2             0.000000   0.000003   0.000000   0.000000   0.000000
    3             0.000000   0.000000   0.000000   0.000000   0.000000
    4             0.000000   0.000000   0.000000   0.000000   0.000000
    5             0.000000   0.000000   0.000000   0.000000   0.000000
    6             2.000000   1.999997   2.000000   2.000000   2.000000

                      6          7          8          9         10

                  2.000000   2.000000   2.000000   2.000000   2.000000

    1             2.000000  -0.000000  -0.000000  -0.000000  -0.000000
    2             0.000000  -0.000028   0.000004   0.000000   0.000000
    3             0.000000  -0.000002   0.000000   0.000000   0.000000
    4             0.000000  -0.000002   0.000000   0.000000   0.000000
    5             0.000000  -0.000002   0.000000   0.000000   0.000000
    6             0.000000   2.000034   1.999995   2.000000   2.000000

                     11         12         13         14         15

                  2.000000   2.000000   2.000000   2.000000   2.000000

    1            -0.000000  -0.000000  -0.000000  -0.000000  -0.000000
    2            -0.000000  -0.000000  -0.000000  -0.000000  -0.000000
    3             0.000000  -0.000000  -0.000000  -0.000000  -0.000000
    4             0.000000  -0.000000  -0.000000  -0.000000  -0.000000
    5             0.000000  -0.000000  -0.000000  -0.000000  -0.000000
    6             2.000000   2.000000   2.000000   2.000000   2.000000

                     16         17         18         19         20

                  2.000000   2.000000   2.000000   2.000000   2.000000

    1            -0.000038   2.000174   2.000157   2.000006   2.000006
    2             2.001897  -0.000159  -0.000154  -0.000003  -0.000003
    3            -0.000606  -0.000005  -0.000001  -0.000000  -0.000002
    4            -0.000606  -0.000005  -0.000001  -0.000002  -0.000000
    5            -0.000606  -0.000005  -0.000001  -0.000001  -0.000001
    6            -0.000039  -0.000000  -0.000000  -0.000000  -0.000000

                     21         22         23         24         25

                  2.000000   2.000000   2.000000   2.000000   2.000000

    1             0.000000  -0.000000  -0.000000  -0.000000   0.000002
    2             0.000060  -0.000996  -0.000012  -0.000012   0.002125
    3             0.000001  -0.000027  -0.000016  -0.000001   0.000059
    4             0.000001  -0.000027  -0.000007  -0.000009   0.000059
    5             0.000001  -0.000027  -0.000002  -0.000015   0.000059
    6             1.999936   2.001078   2.000038   2.000038   1.997695

                     26         27         28         29         30

                  2.000000   2.000000   2.000000   2.000000   2.000000

    1            -0.000000  -0.000000  -0.000000  -0.000000   0.310962
    2             0.000074   0.000074  -0.000000  -0.000000   1.045794
    3             0.000009   0.000030   0.000002   0.000000   0.204004
    4             0.000039   0.000000   0.000001   0.000001   0.204008
    5             0.000010   0.000029   0.000000   0.000002   0.204004
    6             1.999867   1.999867   1.999997   1.999997   0.031228

                     31         32         33         34         35

                  2.000000   2.000000   2.000000   2.000000   2.000000

    1             1.654372   0.016402   0.016402   0.053919   0.859342
    2             0.205113   1.033916   1.033916   0.126393   0.589852
    3             0.037035   0.258848   0.368626   0.004699   0.000897
    4             0.037037   0.608696   0.018778   0.004695   0.000896
    5             0.037036   0.073669   0.553808   0.004696   0.000896
    6             0.029407   0.008470   0.008470   1.805599   0.548116

                     36         37         38         39         40

                  2.000000   2.000000   2.000000   2.000000   2.000000

    1             1.975989   1.975989   0.007605   0.007606   0.743908
    2             0.007825   0.007825   0.006041   0.006041   0.021506
    3             0.000113   0.004572   0.000040   0.002589   0.017691
    4             0.002836   0.001849   0.002231   0.000398   0.017688
    5             0.004078   0.000606   0.001673   0.000956   0.017689
    6             0.009159   0.009159   1.982411   1.982410   1.181517

               ----- POPULATIONS IN EACH AO -----
                             MULLIKEN      LOWDIN
              1  CL 1  S      2.00000     1.99996
              2  CL 1  S      1.99964     1.99941
              3  CL 1  X      1.99505     1.99013
              4  CL 1  Y      2.00000     2.00000
              5  CL 1  Z      2.00000     2.00000
              6  CL 1  S      1.98356     1.97631
              7  CL 1  X      1.64456     1.64593
              8  CL 1  Y      2.00000     2.00000
              9  CL 1  Z      2.00000     2.00000
             10  C  2  S      1.99601     1.98978
             11  C  2  S      1.23139     1.07360
             12  C  2  X      0.76401     0.78856
             13  C  2  Y      1.04784     1.06602
             14  C  2  Z      1.04784     1.06602
             15  H  3  S      0.89855     0.93949
             16  H  4  S      0.89855     0.93949
             17  H  5  S      0.89855     0.93949
             18  I  6  S      2.00069     1.99597
             19  I  6  S      1.91423     1.93241
             20  I  6  X      2.00012     1.99974
             21  I  6  Y      2.00000     2.00000
             22  I  6  Z      2.00000     2.00000
             23  I  6  S      0.59614     0.68626
             24  I  6  X      1.99783     1.99484
             25  I  6  Y      2.00000     2.00000
             26  I  6  Z      2.00000     2.00000
             27  I  6 XX      1.66427     1.71449
             28  I  6 YY      1.66432     1.71448
             29  I  6 ZZ      1.66432     1.71448
             30  I  6 XY      2.00000     2.00000
             31  I  6 XZ      2.00000     2.00000
             32  I  6 YZ      2.00000     2.00000
             33  I  6  S      0.63354     0.66854
             34  I  6  X      1.98225     1.97978
             35  I  6  Y      1.99999     1.99999
             36  I  6  Z      1.99999     1.99999
             37  I  6 XX      1.95768     1.85935
             38  I  6 YY      1.95615     1.85865
             39  I  6 ZZ      1.95615     1.85865
             40  I  6 XY      2.00000     2.00000
             41  I  6 XZ      2.00000     2.00000
             42  I  6 YZ      2.00000     2.00000
             43  I  6  S      1.95854     1.95733
             44  I  6  X      1.64833     1.65097
             45  I  6  Y      1.99995     1.99994
             46  I  6  Z      1.99995     1.99994

          ----- MULLIKEN ATOMIC OVERLAP POPULATIONS -----
          (OFF-DIAGONAL ELEMENTS NEED TO BE MULTIPLIED BY 2)

             1           2           3           4           5

    1   17.6062062
    2    0.0699443   4.7341762
    3   -0.0182556   0.4021177   0.5665323
    4   -0.0182546   0.4021176  -0.0156931   0.5665322
    5   -0.0182548   0.4021169  -0.0156929  -0.0156934   0.5665331
    6    0.0014163   0.0766198  -0.0204563  -0.0204548  -0.0204552

             6

    6   53.5777759

          TOTAL MULLIKEN AND LOWDIN ATOMIC POPULATIONS
       ATOM         MULL.POP.    CHARGE          LOW.POP.     CHARGE
    1 CL           17.622802   -0.622802        17.611734   -0.611734
    2 C             6.087093   -0.087093         5.983972    0.016028
    3 H             0.898552    0.101448         0.939491    0.060509
    4 H             0.898554    0.101446         0.939493    0.060507
    5 H             0.898554    0.101446         0.939492    0.060508
    6 I            53.594446   -0.594446        53.585818   -0.585818

          -------------------------------
          BOND ORDER AND VALENCE ANALYSIS     BOND ORDER THRESHOLD=0.050
          -------------------------------

                   BOND                       BOND                       BOND
  ATOM PAIR DIST  ORDER      ATOM PAIR DIST  ORDER      ATOM PAIR DIST  ORDER
    1   2  2.179  0.463        1   6  4.678  0.139        2   3  1.073  0.976
    2   4  1.073  0.976        2   5  1.073  0.976        2   6  2.499  0.495

                       TOTAL       BONDED        FREE
      ATOM            VALENCE     VALENCE     VALENCE
    1 CL                0.612       0.612       0.000
    2 C                 3.888       3.888       0.000
    3 H                 0.990       0.990      -0.000
    4 H                 0.990       0.990       0.000
    5 H                 0.990       0.990      -0.000
    6 I                 0.647       0.647       0.000

          ---------------------
          ELECTROSTATIC MOMENTS
          ---------------------

 POINT   1           X           Y           Z (BOHR)    CHARGE
                -0.131231    0.064628   -0.044412       -1.00 (A.U.)
         DX          DY          DZ         /D/  (DEBYE)
    -5.511182    0.001517   -0.018986    5.511215
 ...... END OF PROPERTY EVALUATION ......
 STEP CPU TIME =     0.01 TOTAL CPU TIME =        0.7 (    0.0 MIN)
 TOTAL WALL CLOCK TIME=        0.7 SECONDS, CPU UTILIZATION IS  97.06%
      580000  WORDS OF DYNAMIC MEMORY USED
 EXECUTION OF GAMESS TERMINATED NORMALLY Tue Oct  4 13:19:38 2011
 DDI: 263224 bytes (0.3 MB / 0 MWords) used by master data server.

 ----------------------------------------
 CPU timing information for all processes
 ========================================
 0: 0.636 + 0.36 = 0.672
 ----------------------------------------
 ddikick.x: exited gracefully.
unset echo
----- accounting info -----
Files used on the master node idhi were:
-rw-r--r-- 1 koushik koushik     513 2011-10-04 13:19 /home/koushik/Desktop/gamess/iodochloromethane.F05
-rw-r--r-- 1 koushik koushik 2520168 2011-10-04 13:19 /home/koushik/Desktop/gamess/iodochloromethane.F08
-rw-r--r-- 1 koushik koushik  948880 2011-10-04 13:19 /home/koushik/Desktop/gamess/iodochloromethane.F10
Tue Oct  4 13:19:41 IST 2011
0.0u 0.0s 0:03.76 3.1% 0+0k 0+24io 0pf+0w
