
          ******************************************************
          *         GAMESS VERSION =  1 OCT 2010 (R1)          *
          *             FROM IOWA STATE UNIVERSITY             *
          * M.W.SCHMIDT, K.K.BALDRIDGE, J.A.BOATZ, S.T.ELBERT, *
          *   M.S.GORDON, J.H.JENSEN, S.KOSEKI, N.MATSUNAGA,   *
          *          K.A.NGUYEN, S.J.SU, T.L.WINDUS,           *
          *       TOGETHER WITH M.DUPUIS, J.A.MONTGOMERY       *
          *         J.COMPUT.CHEM.  14, 1347-1363(1993)        *
          **************** 32 BIT LINUX VERSION ****************

  SINCE 1993, STUDENTS AND POSTDOCS WORKING AT IOWA STATE UNIVERSITY
  AND ALSO IN THEIR VARIOUS JOBS AFTER LEAVING ISU HAVE MADE IMPORTANT
  CONTRIBUTIONS TO THE CODE:
     IVANA ADAMOVIC, CHRISTINE AIKENS, YURI ALEXEEV, POOJA ARORA,
     ANDREY ASADCHEV, ROB BELL, PRADIPTA BANDYOPADHYAY, JONATHAN BENTZ,
     BRETT BODE, GALINA CHABAN, WEI CHEN, CHEOL HO CHOI, PAUL DAY, TIM DUDLEY,
     DMITRI FEDOROV, GRAHAM FLETCHER, MARK FREITAG, KURT GLAESEMANN, DAN KEMP,
     GRANT MERRILL, NORIYUKI MINEZAWA, JONATHAN MULLIN, TAKESHI NAGATA,
     SEAN NEDD, HEATHER NETZLOFF, BOSILJKA NJEGIC, RYAN OLSON, MIKE PAK,
     JIM SHOEMAKER, LYUDMILA SLIPCHENKO, SAROM SOK, JIE SONG,
     TETSUYA TAKETSUGU, SIMON WEBB, SOOHAENG YOO, FEDERICO ZAHARIEV

  ADDITIONAL CODE HAS BEEN PROVIDED BY COLLABORATORS IN OTHER GROUPS:
     IOWA STATE UNIVERSITY:
          JOE IVANIC, LAIMUTIS BYTAUTAS, KLAUS RUEDENBERG
     UNIVERSITY OF TOKYO: KIMIHIKO HIRAO, TAKAHITO NAKAJIMA,
          TAKAO TSUNEDA, MUNEAKI KAMIYA, SUSUMU YANAGISAWA,
          KIYOSHI YAGI, MAHITO CHIBA, SEIKEN TOKURA, NAOAKI KAWAKAMI
     UNIVERSITY OF AARHUS: FRANK JENSEN
     UNIVERSITY OF IOWA: VISVALDAS KAIRYS, HUI LI
     NATIONAL INST. OF STANDARDS AND TECHNOLOGY: WALT STEVENS, DAVID GARMER
     UNIVERSITY OF PISA: BENEDETTA MENNUCCI, JACOPO TOMASI
     UNIVERSITY OF MEMPHIS: HENRY KURTZ, PRAKASHAN KORAMBATH
     UNIVERSITY OF ALBERTA: TOBY ZENG, MARIUSZ KLOBUKOWSKI
     UNIVERSITY OF NEW ENGLAND: MARK SPACKMAN
     MIE UNIVERSITY: HIROAKI UMEDA
     MICHIGAN STATE UNIVERSITY:
          KAROL KOWALSKI, MARTA WLOCH, JEFFREY GOUR, JESSE LUTZ, PIOTR PIECUCH
     UNIVERSITY OF SILESIA: MONIKA MUSIAL, STANISLAW KUCHARSKI
     FACULTES UNIVERSITAIRES NOTRE-DAME DE LA PAIX:
          OLIVIER QUINET, BENOIT CHAMPAGNE
     UNIVERSITY OF CALIFORNIA - SANTA BARBARA: BERNARD KIRTMAN
     INSTITUTE FOR MOLECULAR SCIENCE:
          KAZUYA ISHIMURA, MICHIO KATOUDA, AND SHIGERU NAGASE
     UNIVERSITY OF NOTRE DAME: DAN CHIPMAN
     KYUSHU UNIVERSITY:
          HARUYUKI NAKANO,
          FENG LONG GU, JACEK KORCHOWIEC, MARCIN MAKOWSKI, AND YURIKO AOKI,
          HIROTOSHI MORI AND EISAKU MIYOSHI
     PENNSYLVANIA STATE UNIVERSITY:
          TZVETELIN IORDANOV, CHET SWALINA, JONATHAN SKONE,
          SHARON HAMMES-SCHIFFER
     WASEDA UNIVERSITY:
          MASATO KOBAYASHI, TOMOKO AKAMA, HIROMI NAKAI
     UNIVERSITY OF NEBRASKA:
          PEIFENG SU, DEJUN SI, YALI WANG, HUI LI
     UNIVERSITY OF ZURICH:
          ROBERTO PEVERATI, KIM BALDRIDGE
     N. COPERNICUS UNIVERSITY AND JACKSON STATE UNIVERSITY:
          MARIA BARYSZ

 EXECUTION OF GAMESS BEGUN Mon Nov 14 12:19:11 2011

            ECHO OF THE FIRST FEW INPUT CARDS -
 INPUT CARD> $CONTRL RUNTYP=ENERGY ICHARG=-1 COORD=UNIQUE $END                              
 INPUT CARD> $BASIS  GBASIS=N21 NGAUSS=3 NDFUNC=1 $END                                      
 INPUT CARD> $DATA                                                                          
 INPUT CARD>3-21g(d) / Iodochloromethane single point energy                                
 INPUT CARD>C1                                                                              
 INPUT CARD>CL         17.0   3.1780173953   0.0323625705  -0.0112318431                    
 INPUT CARD>C           6.0   1.2491823238   0.0339221551  -0.0189224105                    
 INPUT CARD>H           1.0   1.2924950010   0.4911199491   0.9373224797                    
 INPUT CARD>H           1.0   1.2984704925   0.6333001494  -0.8927560076                    
 INPUT CARD>H           1.0   1.2951078784  -1.0227382878  -0.1008541314                    
 INPUT CARD>I          53.0  -1.0583590480   0.0350231702  -0.0276551979                    
 INPUT CARD> $END                                                                           
    1000000 WORDS OF MEMORY AVAILABLE

     BASIS OPTIONS
     -------------
     GBASIS=N21          IGAUSS=       3      POLAR=COMMON  
     NDFUNC=       1     NFFUNC=       0     DIFFSP=       F
     NPFUNC=       0      DIFFS=       F     BASNAM=        


     RUN TITLE
     ---------
 3-21g(d) / Iodochloromethane single point energy                                

 THE POINT GROUP OF THE MOLECULE IS C1      
 THE ORDER OF THE PRINCIPAL AXIS IS     0

 ATOM      ATOMIC                      COORDINATES (BOHR)
           CHARGE         X                   Y                   Z
 CL         17.0     6.0055820613        0.0611563905       -0.0212251058
 C           6.0     2.3606123007        0.0641035781       -0.0357581709
 H           1.0     2.4424613924        0.9280821309        1.7712826488
 H           1.0     2.4537534340        1.1967637503       -1.6870642283
 H           1.0     2.4473990147       -1.9326951211       -0.1905866731
 I          53.0    -2.0000085973        0.0661841949       -0.0522607462

          INTERNUCLEAR DISTANCES (ANGS.)
          ------------------------------

                1 CL         2 C          3 H          4 H          5 H     

   1 CL      0.0000000    1.9288510 *  2.1599556 *  2.1612282 *  2.1602357 *
   2 C       1.9288510 *  0.0000000    1.0608063 *  1.0607867 *  1.0608267 *
   3 H       2.1599556 *  1.0608063 *  0.0000000    1.8356029 *  1.8356427 *
   4 H       2.1612282 *  1.0607867 *  1.8356029 *  0.0000000    1.8356424 *
   5 H       2.1602357 *  1.0608267 *  1.8356427 *  1.8356424 *  0.0000000  
   6 I       4.2364091    2.3075582 *  2.5818058 *  2.5808875 *  2.5812834 *

                6 I     

   1 CL      4.2364091  
   2 C       2.3075582 *
   3 H       2.5818058 *
   4 H       2.5808875 *
   5 H       2.5812834 *
   6 I       0.0000000  

  * ... LESS THAN  3.000


     ATOMIC BASIS SET
     ----------------
 THE CONTRACTED PRIMITIVE FUNCTIONS HAVE BEEN UNNORMALIZED
 THE CONTRACTED BASIS FUNCTIONS ARE NOW NORMALIZED TO UNITY

  SHELL TYPE  PRIMITIVE        EXPONENT          CONTRACTION COEFFICIENT(S)

 CL        

      1   S       1          1376.4000000    0.064582702276
      1   S       2           207.8570000    0.380363013403
      1   S       3            45.1554000    0.678190023897

      2   L       4            60.8014000   -0.098763952754    0.108598058511
      2   L       5            13.9765000    0.051133827313    0.458682247132
      2   L       6             3.8871000    0.991337529515    0.601962324329

      3   L       7             1.3529900   -0.222401484148    0.219215797213
      3   L       8             0.5269550    1.182522574248    0.822320239308

      4   L       9             0.1667140    1.000000000000    1.000000000000

      5   D      10             0.7500000    1.000000000000

 C         

      6   S      11           172.2560000    0.061766907377
      6   S      12            25.9109000    0.358794042852
      6   S      13             5.5333500    0.700713083689

      7   L      14             3.6649800   -0.395895162119    0.236459946619
      7   L      15             0.7705450    1.215834355681    0.860618805716

      8   L      16             0.1958570    1.000000000000    1.000000000000

 H         

      9   S      17             5.4471780    0.156284978695
      9   S      18             0.8245472    0.904690876670

     10   S      19             0.1831916    1.000000000000

 H         

     11   S      20             5.4471780    0.156284978695
     11   S      21             0.8245472    0.904690876670

     12   S      22             0.1831916    1.000000000000

 H         

     13   S      23             5.4471780    0.156284978695
     13   S      24             0.8245472    0.904690876670

     14   S      25             0.1831916    1.000000000000

 I         

     15   S      26         14351.1860000    0.061002801211
     15   S      27          2173.0741000    0.366639807281
     15   S      28           477.8720500    0.691130613725

     16   L      29           648.1887000   -0.112850698620    0.154114493237
     16   L      30           140.3064000    0.083228338982    0.619461772816
     16   L      31            45.6988000    0.969751588138    0.383758283159

     17   L      32            56.6946900   -0.273696515460   -0.152321688285
     17   L      33            27.4887500    0.046499682627    0.543768558178
     17   L      34             8.2090960    1.091576061658    0.656167849533

     18   D      35           128.0902600    0.115863604354
     18   D      36            35.9823780    0.482049418114
     18   D      37            11.5511160    0.589444822149

     19   L      38             8.1916790   -0.450827701928    0.011869880145
     19   L      39             3.2445960    0.463209401981    0.526524606432
     19   L      40             1.3004890    0.838636003587    0.526607606433

     20   D      41             6.1461523    0.268181706033
     20   D      42             2.2209370    0.580061413050
     20   D      43             0.8099120    0.326226307339

     21   L      44             1.4513800   -0.665851440678    0.027541310868
     21   L      45             0.3281033    1.328583881634    0.985136831056

     22   L      46             0.1150759    1.000000000000    1.000000000000

     23   D      47             0.2660000    1.000000000000

 TOTAL NUMBER OF BASIS SET SHELLS             =   23
 NUMBER OF CARTESIAN GAUSSIAN BASIS FUNCTIONS =   73
 NUMBER OF ELECTRONS                          =   80
 CHARGE OF MOLECULE                           =   -1
 SPIN MULTIPLICITY                            =    1
 NUMBER OF OCCUPIED ORBITALS (ALPHA)          =   40
 NUMBER OF OCCUPIED ORBITALS (BETA )          =   40
 TOTAL NUMBER OF ATOMS                        =    6
 THE NUCLEAR REPULSION ENERGY IS      268.3849917894

     $CONTRL OPTIONS
     ---------------
 SCFTYP=RHF          RUNTYP=ENERGY       EXETYP=RUN     
 MPLEVL=       0     CITYP =NONE         CCTYP =NONE         VBTYP =NONE    
 DFTTYP=NONE         TDDFT =NONE    
 MULT  =       1     ICHARG=      -1     NZVAR =       0     COORD =UNIQUE  
 PP    =NONE         RELWFN=NONE         LOCAL =NONE         NUMGRD=       F
 ISPHER=      -1     NOSYM =       0     MAXIT =      30     UNITS =ANGS    
 PLTORB=       F     MOLPLT=       F     AIMPAC=       F     FRIEND=        
 NPRINT=       7     IREST =       0     GEOM  =INPUT   
 NORMF =       0     NORMP =       0     ITOL  =      20     ICUT  =       9
 INTTYP=BEST         GRDTYP=BEST         QMTTOL= 1.0E-06

     $SYSTEM OPTIONS
     ---------------
  REPLICATED MEMORY=     1000000 WORDS (ON EVERY NODE).
 DISTRIBUTED MEMDDI=           0 MILLION WORDS IN AGGREGATE,
 MEMDDI DISTRIBUTED OVER   1 PROCESSORS IS           0 WORDS/PROCESSOR.
 TOTAL MEMORY REQUESTED ON EACH PROCESSOR=     1000000 WORDS.
 TIMLIM=      525600.00 MINUTES, OR     365.0 DAYS.
 PARALL= F  BALTYP=  DLB     KDIAG=    0  COREFL= F
 MXSEQ2=     300 MXSEQ3=     150

          ----------------
          PROPERTIES INPUT
          ----------------

     MOMENTS            FIELD           POTENTIAL          DENSITY
 IEMOM =       1   IEFLD =       0   IEPOT =       0   IEDEN =       0
 WHERE =COMASS     WHERE =NUCLEI     WHERE =NUCLEI     WHERE =NUCLEI  
 OUTPUT=BOTH       OUTPUT=BOTH       OUTPUT=BOTH       OUTPUT=BOTH    
 IEMINT=       0   IEFINT=       0                     IEDINT=       0
                                                       MORB  =       0
          EXTRAPOLATION IN EFFECT
          SOSCF IN EFFECT
 ORBITAL PRINTING OPTION: NPREO=     1    73     2     1

     -------------------------------
     INTEGRAL TRANSFORMATION OPTIONS
     -------------------------------
     NWORD  =            0
     CUTOFF = 1.0E-09     MPTRAN =       0
     DIRTRF =       F     AOINTS =DUP     

          ----------------------
          INTEGRAL INPUT OPTIONS
          ----------------------
 NOPK  =       1 NORDER=       0 SCHWRZ=       T

     ------------------------------------------
     THE POINT GROUP IS C1 , NAXIS= 0, ORDER= 1
     ------------------------------------------

     DIMENSIONS OF THE SYMMETRY SUBSPACES ARE
 A   =   73

 ..... DONE SETTING UP THE RUN .....
 STEP CPU TIME =     0.01 TOTAL CPU TIME =        0.0 (    0.0 MIN)
 TOTAL WALL CLOCK TIME=        0.0 SECONDS, CPU UTILIZATION IS 100.00%

          ********************
          1 ELECTRON INTEGRALS
          ********************
 ...... END OF ONE-ELECTRON INTEGRALS ......
 STEP CPU TIME =     0.00 TOTAL CPU TIME =        0.0 (    0.0 MIN)
 TOTAL WALL CLOCK TIME=        0.0 SECONDS, CPU UTILIZATION IS  50.00%

          -------------
          GUESS OPTIONS
          -------------
          GUESS =HUCKEL            NORB  =       0          NORDER=       0
          MIX   =       F          PRTMO =       F          PUNMO =       F
          TOLZ  = 1.0E-08          TOLE  = 1.0E-05
          SYMDEN=       F          PURIFY=       F

 INITIAL GUESS ORBITALS GENERATED BY HUCKEL   ROUTINE.
 HUCKEL GUESS REQUIRES     52279 WORDS.

 SYMMETRIES FOR INITIAL GUESS ORBITALS FOLLOW.   BOTH SET(S).
    40 ORBITALS ARE OCCUPIED (   29 CORE ORBITALS).
    30=A       31=A       32=A       33=A       34=A       35=A       36=A   
    37=A       38=A       39=A       40=A       41=A       42=A       43=A   
    44=A       45=A       46=A       47=A       48=A       49=A       50=A   
 ...... END OF INITIAL ORBITAL SELECTION ......
 STEP CPU TIME =     0.02 TOTAL CPU TIME =        0.0 (    0.0 MIN)
 TOTAL WALL CLOCK TIME=        0.0 SECONDS, CPU UTILIZATION IS  75.00%

                    ----------------------
                    AO INTEGRAL TECHNOLOGY
                    ----------------------
     S,P,L SHELL ROTATED AXIS INTEGRALS, REPROGRAMMED BY
        KAZUYA ISHIMURA (IMS) AND JOSE SIERRA (SYNSTAR).
     S,P,D,L SHELL ROTATED AXIS INTEGRALS PROGRAMMED BY
        KAZUYA ISHIMURA (INSTITUTE FOR MOLECULAR SCIENCE).
     S,P,D,F,G SHELL TO TOTAL QUARTET ANGULAR MOMENTUM SUM 5,
        ERIC PROGRAM BY GRAHAM FLETCHER (ELORET AND NASA ADVANCED
        SUPERCOMPUTING DIVISION, AMES RESEARCH CENTER).
     S,P,D,F,G,L SHELL GENERAL RYS QUADRATURE PROGRAMMED BY
        MICHEL DUPUIS (PACIFIC NORTHWEST NATIONAL LABORATORY).

          --------------------
          2 ELECTRON INTEGRALS
          --------------------

 THE -PK- OPTION IS OFF, THE INTEGRALS ARE NOT IN SUPERMATRIX FORM.
 STORING   15000 INTEGRALS/RECORD ON DISK, USING 12 BYTES/INTEGRAL.
 TWO ELECTRON INTEGRAL EVALUATION REQUIRES   90672 WORDS OF MEMORY.
 SCHWARZ INEQUALITY OVERHEAD:      2470 INTEGRALS, T=        0.01
 II,JST,KST,LST =  1  1  1  1 NREC =         1 INTLOC =    1
 II,JST,KST,LST =  2  1  1  1 NREC =         1 INTLOC =    2
 II,JST,KST,LST =  3  1  1  1 NREC =         1 INTLOC =   34
 II,JST,KST,LST =  4  1  1  1 NREC =         1 INTLOC =  214
 II,JST,KST,LST =  5  1  1  1 NREC =         1 INTLOC =  776
 II,JST,KST,LST =  6  1  1  1 NREC =         1 INTLOC = 2864
 II,JST,KST,LST =  7  1  1  1 NREC =         1 INTLOC = 5066
 II,JST,KST,LST =  8  1  1  1 NREC =         2 INTLOC = 9694
 II,JST,KST,LST =  9  1  1  1 NREC =         4 INTLOC =13871
 II,JST,KST,LST = 10  1  1  1 NREC =         5 INTLOC =10440
 II,JST,KST,LST = 11  1  1  1 NREC =         6 INTLOC = 8723
 II,JST,KST,LST = 12  1  1  1 NREC =         7 INTLOC = 7936
 II,JST,KST,LST = 13  1  1  1 NREC =         8 INTLOC = 9101
 II,JST,KST,LST = 14  1  1  1 NREC =         9 INTLOC =11160
 II,JST,KST,LST = 15  1  1  1 NREC =        11 INTLOC =  570
 II,JST,KST,LST = 16  1  1  1 NREC =        11 INTLOC = 4511
 II,JST,KST,LST = 17  1  1  1 NREC =        12 INTLOC =10878
 II,JST,KST,LST = 18  1  1  1 NREC =        15 INTLOC = 3488
 II,JST,KST,LST = 19  1  1  1 NREC =        20 INTLOC = 6189
 II,JST,KST,LST = 20  1  1  1 NREC =        26 INTLOC = 8369
 II,JST,KST,LST = 21  1  1  1 NREC =        39 INTLOC = 2319
 II,JST,KST,LST = 22  1  1  1 NREC =        52 INTLOC =  831
 II,JST,KST,LST = 23  1  1  1 NREC =        70 INTLOC = 9700
 SCHWARZ INEQUALITY TEST SKIPPED       10603 INTEGRAL BLOCKS.
 TOTAL NUMBER OF NONZERO TWO-ELECTRON INTEGRALS =             1495731
        100 INTEGRAL RECORDS WERE STORED ON DISK FILE  8.
  ...... END OF TWO-ELECTRON INTEGRALS .....
 STEP CPU TIME =     0.26 TOTAL CPU TIME =        0.3 (    0.0 MIN)
 TOTAL WALL CLOCK TIME=        0.3 SECONDS, CPU UTILIZATION IS  93.55%

          --------------------------
                 RHF SCF CALCULATION
          --------------------------

     NUCLEAR ENERGY =       268.3849917894
     MAXIT =   30     NPUNCH=    2
     EXTRAP=T  DAMP=F  SHIFT=F  RSTRCT=F  DIIS=F  DEM=F  SOSCF=T
     DENSITY MATRIX CONV=  1.00E-05
     SOSCF WILL OPTIMIZE    1320 ORBITAL ROTATIONS, SOGTOL=   0.250
     MEMORY REQUIRED FOR RHF ITERS=     73605 WORDS.

 ITER EX DEM     TOTAL ENERGY        E CHANGE  DENSITY CHANGE     ORB. GRAD
   1  0  0    -7383.6529665627 -7383.6529665627   0.467860857   0.000000000
          ---------------START SECOND ORDER SCF---------------
   2  1  0    -7384.6620606427    -1.0090940801   0.123160857   0.078143443
   3  2  0    -7384.6762735294    -0.0142128866   0.058769496   0.011733032
   4  3  0    -7384.6790629659    -0.0027894365   0.015495618   0.009305546
   5  4  0    -7384.6792122057    -0.0001492398   0.002781671   0.001008732
   6  5  0    -7384.6792279534    -0.0000157477   0.001332078   0.000735884
   7  6  0    -7384.6792289224    -0.0000009690   0.000381342   0.000091297
   8  7  0    -7384.6792289696    -0.0000000472   0.000100335   0.000024472
   9  8  0    -7384.6792289740    -0.0000000044   0.000028987   0.000009629
  10  9  0    -7384.6792289743    -0.0000000003   0.000007113   0.000000722
  11 10  0    -7384.6792289743    -0.0000000000   0.000000780   0.000000538

          -----------------
          DENSITY CONVERGED
          -----------------
     TIME TO FORM FOCK OPERATORS=       0.4 SECONDS (       0.0 SEC/ITER)
     TIME TO SOLVE SCF EQUATIONS=       0.0 SECONDS (       0.0 SEC/ITER)

 FINAL RHF ENERGY IS    -7384.6792289743 AFTER  11 ITERATIONS

          ------------
          EIGENVECTORS
          ------------

                      1          2          3          4          5
                -1170.1946  -179.8881  -168.1289  -168.1286  -168.1286
                     A          A          A          A          A   
    1  CL 1  S    0.000000  -0.000000  -0.000002   0.000000   0.000000
    2  CL 1  S   -0.000012   0.000011   0.000139  -0.000000   0.000000
    3  CL 1  X   -0.000001  -0.000001   0.000031   0.000000   0.000000
    4  CL 1  Y    0.000000  -0.000000  -0.000000  -0.000005   0.000005
    5  CL 1  Z   -0.000000  -0.000000   0.000000  -0.000005  -0.000005
    6  CL 1  S   -0.000029   0.000045   0.000151   0.000000   0.000000
    7  CL 1  X    0.000010  -0.000000  -0.000198  -0.000000  -0.000000
    8  CL 1  Y   -0.000000   0.000000   0.000000   0.000031  -0.000028
    9  CL 1  Z    0.000000   0.000000  -0.000001   0.000028   0.000031
   10  CL 1  S    0.000216  -0.000271  -0.001794   0.000000  -0.000000
   11  CL 1  X   -0.000135   0.000170   0.001202   0.000000   0.000001
   12  CL 1  Y    0.000000  -0.000000  -0.000001  -0.000089   0.000082
   13  CL 1  Z   -0.000000   0.000001   0.000004  -0.000082  -0.000089
   14  CL 1 XX   -0.000003  -0.000011   0.000118  -0.000000  -0.000000
   15  CL 1 YY   -0.000037   0.000039   0.000388   0.000009  -0.000005
   16  CL 1 ZZ   -0.000037   0.000039   0.000388  -0.000009   0.000005
   17  CL 1 XY   -0.000000   0.000000   0.000000   0.000022  -0.000020
   18  CL 1 XZ    0.000000  -0.000000  -0.000001   0.000020   0.000022
   19  CL 1 YZ    0.000000  -0.000000  -0.000000  -0.000006  -0.000011
   20  C  2  S   -0.000018   0.000023   0.000090  -0.000000  -0.000000
   21  C  2  S   -0.000071   0.000092   0.000838  -0.000000  -0.000000
   22  C  2  X   -0.000032   0.000024  -0.000495   0.000000  -0.000000
   23  C  2  Y    0.000000  -0.000000   0.000000   0.000015  -0.000014
   24  C  2  Z   -0.000000   0.000000  -0.000002   0.000014   0.000015
   25  C  2  S    0.000381  -0.000472  -0.001868   0.000000   0.000001
   26  C  2  X   -0.000280   0.000440   0.001787   0.000000   0.000000
   27  C  2  Y    0.000000  -0.000000  -0.000001  -0.000072   0.000066
   28  C  2  Z   -0.000001   0.000002   0.000008  -0.000066  -0.000072
   29  H  3  S   -0.000015   0.000028   0.000017  -0.000088  -0.000035
   30  H  3  S   -0.000216   0.000220   0.001350   0.000547   0.000220
   31  H  4  S   -0.000015   0.000028   0.000018   0.000013   0.000093
   32  H  4  S   -0.000216   0.000220   0.001350  -0.000083  -0.000584
   33  H  5  S   -0.000015   0.000028   0.000018   0.000074  -0.000058
   34  H  5  S   -0.000217   0.000220   0.001350  -0.000464   0.000364
   35  I  6  S    0.972421  -0.344049  -0.000007   0.000000   0.000000
   36  I  6  S    0.113575   1.035076   0.000044  -0.000000  -0.000000
   37  I  6  X    0.000004  -0.000031   0.975446  -0.002202  -0.003058
   38  I  6  Y   -0.000000   0.000000  -0.000444   0.719033  -0.659204
   39  I  6  Z    0.000000  -0.000000   0.003742   0.659201   0.719027
   40  I  6  S    0.242274   0.147967   0.000165  -0.000000  -0.000000
   41  I  6  X   -0.000015   0.000014   0.062559  -0.000141  -0.000196
   42  I  6  Y    0.000000  -0.000000  -0.000028   0.046038  -0.042208
   43  I  6  Z   -0.000000   0.000000   0.000240   0.042207   0.046038
   44  I  6 XX   -0.128144  -0.047061  -0.000035   0.000000   0.000000
   45  I  6 YY   -0.128138  -0.047076  -0.000034   0.000001  -0.000001
   46  I  6 ZZ   -0.128138  -0.047076  -0.000034  -0.000001   0.000001
   47  I  6 XY    0.000000  -0.000000   0.000000  -0.000006   0.000006
   48  I  6 XZ   -0.000000   0.000000   0.000000  -0.000006  -0.000006
   49  I  6 YZ   -0.000000   0.000000   0.000000  -0.000001  -0.000002
   50  I  6  S    0.054110  -0.081296  -0.002183   0.000000   0.000000
   51  I  6  X    0.000039  -0.000041  -0.018866   0.000042   0.000058
   52  I  6  Y   -0.000000   0.000000   0.000009  -0.013714   0.012573
   53  I  6  Z    0.000000  -0.000000  -0.000072  -0.012573  -0.013714
   54  I  6 XX   -0.026579   0.037333   0.001466  -0.000000  -0.000000
   55  I  6 YY   -0.026601   0.037374   0.001478  -0.000005   0.000003
   56  I  6 ZZ   -0.026601   0.037374   0.001478   0.000005  -0.000003
   57  I  6 XY   -0.000000   0.000000  -0.000000   0.000017  -0.000016
   58  I  6 XZ    0.000000  -0.000000  -0.000000   0.000016   0.000017
   59  I  6 YZ    0.000000  -0.000000  -0.000000   0.000003   0.000006
   60  I  6  S    0.019449  -0.026279  -0.000793   0.000000  -0.000000
   61  I  6  X   -0.000104   0.000097   0.009076  -0.000019  -0.000026
   62  I  6  Y    0.000000  -0.000000  -0.000004   0.006115  -0.005606
   63  I  6  Z   -0.000000   0.000000   0.000035   0.005606   0.006115
   64  I  6  S    0.006805  -0.008101  -0.003107   0.000001   0.000000
   65  I  6  X   -0.000003   0.000105  -0.004165   0.000009   0.000012
   66  I  6  Y   -0.000000  -0.000000   0.000002  -0.002852   0.002615
   67  I  6  Z   -0.000000   0.000000  -0.000016  -0.002615  -0.002852
   68  I  6 XX   -0.005660   0.007205   0.001740   0.000000   0.000000
   69  I  6 YY   -0.005527   0.006973   0.001329   0.000018  -0.000010
   70  I  6 ZZ   -0.005527   0.006973   0.001329  -0.000019   0.000010
   71  I  6 XY    0.000000  -0.000000  -0.000000  -0.000062   0.000057
   72  I  6 XZ   -0.000001   0.000001   0.000002  -0.000057  -0.000062
   73  I  6 YZ   -0.000000   0.000000   0.000000  -0.000012  -0.000021

                      6          7          8          9         10
                 -103.9730   -37.6114   -32.5057   -32.5049   -32.5049
                     A          A          A          A          A   
    1  CL 1  S    0.984455  -0.000000   0.000003  -0.000000   0.000000
    2  CL 1  S    0.075936   0.000006  -0.000100   0.000000   0.000000
    3  CL 1  X    0.000095  -0.000001  -0.000023  -0.000000   0.000000
    4  CL 1  Y   -0.000000  -0.000000   0.000000   0.000004   0.000004
    5  CL 1  Z    0.000000  -0.000000  -0.000000   0.000004  -0.000004
    6  CL 1  S   -0.089380   0.000027  -0.000149  -0.000000   0.000000
    7  CL 1  X   -0.000604   0.000002   0.000151   0.000000  -0.000000
    8  CL 1  Y    0.000000   0.000000  -0.000000  -0.000022  -0.000023
    9  CL 1  Z   -0.000002   0.000000   0.000001  -0.000023   0.000022
   10  CL 1  S   -0.008584  -0.000163   0.001419  -0.000000  -0.000000
   11  CL 1  X    0.001999   0.000107  -0.000953  -0.000000   0.000000
   12  CL 1  Y   -0.000001  -0.000000   0.000001   0.000063   0.000066
   13  CL 1  Z    0.000008   0.000000  -0.000003   0.000066  -0.000063
   14  CL 1 XX    0.035711  -0.000011  -0.000078   0.000000  -0.000000
   15  CL 1 YY    0.036116   0.000023  -0.000290  -0.000007  -0.000004
   16  CL 1 ZZ    0.036116   0.000023  -0.000290   0.000007   0.000005
   17  CL 1 XY    0.000000   0.000000  -0.000000  -0.000015  -0.000015
   18  CL 1 XZ   -0.000002  -0.000000   0.000001  -0.000015   0.000015
   19  CL 1 YZ   -0.000000  -0.000000   0.000000   0.000005  -0.000008
   20  C  2  S    0.000036   0.000023  -0.000084   0.000000  -0.000000
   21  C  2  S    0.000474   0.000099  -0.000680   0.000000  -0.000000
   22  C  2  X   -0.000005  -0.000008   0.000373  -0.000000  -0.000000
   23  C  2  Y   -0.000000   0.000000  -0.000000  -0.000013  -0.000013
   24  C  2  Z    0.000000  -0.000000   0.000001  -0.000013   0.000013
   25  C  2  S   -0.000863  -0.000303   0.001559  -0.000001   0.000000
   26  C  2  X    0.001338   0.000320  -0.001474   0.000000   0.000000
   27  C  2  Y   -0.000001  -0.000000   0.000001   0.000065   0.000068
   28  C  2  Z    0.000004   0.000001  -0.000006   0.000068  -0.000065
   29  H  3  S   -0.000142   0.000042  -0.000032   0.000063  -0.000021
   30  H  3  S    0.001400   0.000074  -0.001072  -0.000452   0.000147
   31  H  4  S   -0.000142   0.000042  -0.000033  -0.000014   0.000065
   32  H  4  S    0.001398   0.000074  -0.001072   0.000099  -0.000465
   33  H  5  S   -0.000142   0.000042  -0.000032  -0.000050  -0.000045
   34  H  5  S    0.001399   0.000074  -0.001072   0.000354   0.000318
   35  I  6  S    0.000002   0.151815   0.000004  -0.000000   0.000000
   36  I  6  S    0.000018  -0.547393  -0.000033   0.000000  -0.000000
   37  I  6  X   -0.000018   0.000027  -0.469439   0.001210  -0.001407
   38  I  6  Y    0.000000  -0.000000   0.000184  -0.323811  -0.339922
   39  I  6  Z   -0.000000   0.000000  -0.001846  -0.339920   0.323808
   40  I  6  S    0.000096   1.099289  -0.000036  -0.000000   0.000000
   41  I  6  X    0.000063  -0.000061   1.065347  -0.002747   0.003192
   42  I  6  Y   -0.000000   0.000000  -0.000417   0.734888   0.771452
   43  I  6  Z    0.000000  -0.000000   0.004190   0.771448  -0.734881
   44  I  6 XX   -0.000014  -0.006345  -0.000015   0.000000  -0.000000
   45  I  6 YY   -0.000010  -0.006411   0.000021  -0.000002  -0.000001
   46  I  6 ZZ   -0.000010  -0.006411   0.000021   0.000001   0.000001
   47  I  6 XY    0.000000  -0.000000   0.000000  -0.000010  -0.000010
   48  I  6 XZ   -0.000000   0.000000  -0.000000  -0.000010   0.000010
   49  I  6 YZ   -0.000000   0.000000  -0.000000   0.000001  -0.000002
   50  I  6  S   -0.000896   0.101995   0.001670  -0.000000   0.000000
   51  I  6  X   -0.000168  -0.000006   0.036986  -0.000095   0.000110
   52  I  6  Y    0.000000   0.000000  -0.000014   0.025341   0.026602
   53  I  6  Z   -0.000001  -0.000000   0.000145   0.026602  -0.025341
   54  I  6 XX    0.000708  -0.025765  -0.001102   0.000000  -0.000000
   55  I  6 YY    0.000693  -0.025752  -0.001127   0.000004   0.000002
   56  I  6 ZZ    0.000693  -0.025752  -0.001127  -0.000003  -0.000002
   57  I  6 XY   -0.000000   0.000000   0.000000  -0.000009  -0.000009
   58  I  6 XZ    0.000000  -0.000000   0.000000  -0.000009   0.000009
   59  I  6 YZ    0.000000  -0.000000   0.000000  -0.000003   0.000004
   60  I  6  S   -0.000151   0.008231   0.000604  -0.000000   0.000000
   61  I  6  X    0.000568   0.000020  -0.008260   0.000020  -0.000023
   62  I  6  Y   -0.000000  -0.000000   0.000003  -0.005267  -0.005529
   63  I  6  Z    0.000002   0.000000  -0.000032  -0.005529   0.005267
   64  I  6  S   -0.002140  -0.001719   0.002375  -0.000001   0.000000
   65  I  6  X   -0.000456   0.000155   0.003418  -0.000008   0.000010
   66  I  6  Y    0.000000  -0.000000  -0.000001   0.002230   0.002341
   67  I  6  Z   -0.000002   0.000001   0.000013   0.002341  -0.002230
   68  I  6 XX    0.000951   0.000567  -0.001400   0.000000   0.000000
   69  I  6 YY    0.000802   0.000380  -0.001015  -0.000014  -0.000009
   70  I  6 ZZ    0.000802   0.000380  -0.001015   0.000015   0.000009
   71  I  6 XY   -0.000000  -0.000000   0.000000   0.000044   0.000046
   72  I  6 XZ    0.000001   0.000001  -0.000002   0.000046  -0.000044
   73  I  6 YZ   -0.000000   0.000000  -0.000000   0.000011  -0.000016

                     11         12         13         14         15
                  -23.9610   -23.9601   -23.9601   -23.9593   -23.9593
                     A          A          A          A          A   
    1  CL 1  S   -0.000003   0.000000  -0.000000  -0.000000  -0.000000
    2  CL 1  S    0.000039  -0.000000   0.000000   0.000000   0.000000
    3  CL 1  X    0.000158   0.000000  -0.000000   0.000000  -0.000000
    4  CL 1  Y   -0.000000  -0.000042  -0.000053   0.000014   0.000010
    5  CL 1  Z    0.000001  -0.000053   0.000042  -0.000010   0.000014
    6  CL 1  S   -0.001252   0.000001  -0.000001   0.000000  -0.000000
    7  CL 1  X   -0.000758  -0.000000   0.000001  -0.000000   0.000000
    8  CL 1  Y    0.000000   0.000251   0.000319  -0.000074  -0.000055
    9  CL 1  Z   -0.000003   0.000319  -0.000251   0.000054  -0.000074
   10  CL 1  S    0.005472  -0.000000   0.000004  -0.000001   0.000000
   11  CL 1  X   -0.003655   0.000004  -0.000007   0.000001  -0.000001
   12  CL 1  Y    0.000004  -0.000798  -0.001013   0.000109   0.000080
   13  CL 1  Z   -0.000015  -0.001013   0.000798  -0.000080   0.000109
   14  CL 1 XX    0.001211  -0.000003   0.000003   0.000000   0.000000
   15  CL 1 YY   -0.000313   0.000006   0.000004  -0.000023  -0.000028
   16  CL 1 ZZ   -0.000313  -0.000005  -0.000007   0.000023   0.000028
   17  CL 1 XY   -0.000002   0.000232   0.000294   0.000015   0.000011
   18  CL 1 XZ    0.000007   0.000294  -0.000232  -0.000011   0.000015
   19  CL 1 YZ    0.000000  -0.000005   0.000009  -0.000032   0.000027
   20  C  2  S   -0.000693  -0.000000   0.000000  -0.000000   0.000000
   21  C  2  S   -0.003597  -0.000001   0.000002  -0.000001   0.000001
   22  C  2  X    0.001721   0.000002  -0.000001  -0.000001   0.000001
   23  C  2  Y   -0.000001  -0.000449  -0.000569  -0.000259  -0.000190
   24  C  2  Z    0.000006  -0.000570   0.000449   0.000190  -0.000259
   25  C  2  S    0.011796   0.000005  -0.000007   0.000002  -0.000002
   26  C  2  X   -0.017270  -0.000007   0.000006   0.000005  -0.000005
   27  C  2  Y    0.000010   0.002385   0.003023   0.001502   0.001103
   28  C  2  Z   -0.000065   0.003027  -0.002382  -0.001103   0.001502
   29  H  3  S   -0.001553  -0.001354   0.000305  -0.000035   0.000184
   30  H  3  S    0.001150   0.000634  -0.000143   0.000398  -0.002099
   31  H  4  S   -0.001556   0.000413  -0.001324   0.000177  -0.000062
   32  H  4  S    0.001155  -0.000196   0.000628  -0.002020   0.000706
   33  H  5  S   -0.001554   0.000941   0.001020  -0.000143  -0.000122
   34  H  5  S    0.001153  -0.000445  -0.000482   0.001621   0.001395
   35  I  6  S    0.000010  -0.000000   0.000000  -0.000000   0.000000
   36  I  6  S    0.000342  -0.000000   0.000000  -0.000000   0.000000
   37  I  6  X   -0.000008   0.000000  -0.000000   0.000000  -0.000000
   38  I  6  Y   -0.000000  -0.000012  -0.000015   0.000003   0.000002
   39  I  6  Z   -0.000000  -0.000015   0.000012  -0.000002   0.000003
   40  I  6  S    0.000924  -0.000000   0.000000  -0.000000   0.000000
   41  I  6  X    0.000028  -0.000000   0.000000  -0.000000   0.000000
   42  I  6  Y    0.000000   0.000040   0.000051  -0.000011  -0.000008
   43  I  6  Z    0.000000   0.000051  -0.000040   0.000008  -0.000011
   44  I  6 XX    0.975273  -0.004612   0.004558   0.000019  -0.000043
   45  I  6 YY   -0.487748  -0.002556  -0.002063   0.547588   0.643725
   46  I  6 ZZ   -0.487735   0.007169  -0.002495  -0.547607  -0.643682
   47  I  6 XY   -0.000725   0.603915   0.766451  -0.000301   0.004562
   48  I  6 XZ    0.006441   0.766420  -0.603915   0.001020   0.005125
   49  I  6 YZ   -0.000028   0.003969   0.000928   0.743305  -0.632299
   50  I  6  S    0.003332   0.000001  -0.000000   0.000000  -0.000001
   51  I  6  X   -0.000088   0.000001  -0.000000   0.000000  -0.000000
   52  I  6  Y   -0.000000  -0.000082  -0.000104   0.000031   0.000023
   53  I  6  Z   -0.000000  -0.000104   0.000082  -0.000023   0.000031
   54  I  6 XX    0.069814  -0.000325   0.000320   0.000001  -0.000002
   55  I  6 YY   -0.034917  -0.000181  -0.000145   0.038272   0.044992
   56  I  6 ZZ   -0.034916   0.000502  -0.000174  -0.038274  -0.044988
   57  I  6 XY   -0.000052   0.042351   0.053749  -0.000021   0.000319
   58  I  6 XZ    0.000461   0.053746  -0.042351   0.000071   0.000358
   59  I  6 YZ   -0.000002   0.000279   0.000064   0.051952  -0.044193
   60  I  6  S    0.006556  -0.000000   0.000000   0.000000  -0.000000
   61  I  6  X    0.002352  -0.000002   0.000002  -0.000001   0.000001
   62  I  6  Y   -0.000001   0.000380   0.000482  -0.000098  -0.000072
   63  I  6  Z    0.000009   0.000482  -0.000380   0.000072  -0.000098
   64  I  6  S   -0.019665   0.000005  -0.000002   0.000001  -0.000002
   65  I  6  X   -0.014000   0.000006  -0.000005   0.000001  -0.000001
   66  I  6  Y    0.000006  -0.000798  -0.001013   0.000104   0.000076
   67  I  6  Z   -0.000052  -0.001013   0.000799  -0.000076   0.000103
   68  I  6 XX   -0.020862   0.000074  -0.000074  -0.000001   0.000002
   69  I  6 YY    0.013186   0.000045   0.000038  -0.008348  -0.009812
   70  I  6 ZZ    0.013186  -0.000123   0.000036   0.008347   0.009812
   71  I  6 XY    0.000017  -0.009713  -0.012326  -0.000016  -0.000085
   72  I  6 XZ   -0.000149  -0.012326   0.009712  -0.000001  -0.000099
   73  I  6 YZ    0.000001  -0.000069  -0.000008  -0.011331   0.009638

                     16         17         18         19         20
                  -11.0662   -10.2798    -7.7450    -7.7423    -7.7423
                     A          A          A          A          A   
    1  CL 1  S   -0.000040  -0.302034  -0.000697  -0.000000  -0.000000
    2  CL 1  S    0.000440   0.928373   0.001713   0.000000   0.000001
    3  CL 1  X    0.000408  -0.001882   0.973937  -0.001698  -0.003506
    4  CL 1  Y   -0.000000   0.000002  -0.000769   0.776054  -0.589854
    5  CL 1  Z    0.000001  -0.000008   0.003816   0.589852   0.776046
    6  CL 1  S   -0.002243   0.306079   0.000272   0.000000  -0.000000
    7  CL 1  X   -0.002333  -0.001161   0.080993  -0.000135  -0.000280
    8  CL 1  Y    0.000002   0.000001  -0.000064   0.061831  -0.046996
    9  CL 1  Z   -0.000008  -0.000004   0.000317   0.046996   0.061830
   10  CL 1  S    0.006088  -0.014453   0.003494  -0.000000  -0.000000
   11  CL 1  X   -0.004918   0.001927  -0.025708   0.000041   0.000084
   12  CL 1  Y    0.000006  -0.000001   0.000019  -0.018613   0.014146
   13  CL 1  Z   -0.000024   0.000007  -0.000099  -0.014147  -0.018612
   14  CL 1 XX    0.003214  -0.085683  -0.002740   0.000000   0.000001
   15  CL 1 YY    0.000245  -0.085700  -0.001577   0.000051  -0.000022
   16  CL 1 ZZ    0.000246  -0.085700  -0.001577  -0.000051   0.000022
   17  CL 1 XY   -0.000003  -0.000000   0.000001  -0.000044   0.000034
   18  CL 1 XZ    0.000015   0.000000  -0.000006  -0.000034  -0.000045
   19  CL 1 YZ   -0.000000  -0.000000   0.000000  -0.000026  -0.000058
   20  C  2  S    0.987621  -0.000082  -0.000582   0.000000   0.000000
   21  C  2  S    0.101960   0.000372  -0.004477   0.000001   0.000002
   22  C  2  X    0.000594  -0.000058  -0.001684  -0.000000   0.000000
   23  C  2  Y   -0.000000   0.000000   0.000001   0.000089  -0.000068
   24  C  2  Z    0.000002  -0.000000  -0.000007   0.000068   0.000089
   25  C  2  S   -0.076946  -0.001043   0.009247  -0.000002  -0.000006
   26  C  2  X   -0.002113   0.000938   0.005222   0.000001  -0.000002
   27  C  2  Y    0.000002  -0.000000  -0.000005  -0.000295   0.000220
   28  C  2  Z   -0.000008   0.000003   0.000025  -0.000224  -0.000290
   29  H  3  S    0.000206  -0.000112  -0.000736  -0.000325  -0.000167
   30  H  3  S    0.014733   0.001478  -0.006723   0.003465   0.001781
   31  H  4  S    0.000205  -0.000112  -0.000729   0.000018   0.000368
   32  H  4  S    0.014734   0.001476  -0.006720  -0.000190  -0.003885
   33  H  5  S    0.000206  -0.000112  -0.000734   0.000308  -0.000198
   34  H  5  S    0.014732   0.001478  -0.006723  -0.003275   0.002109
   35  I  6  S    0.000001   0.000002  -0.000010  -0.000000  -0.000000
   36  I  6  S   -0.000000   0.000021  -0.000142  -0.000000  -0.000000
   37  I  6  X   -0.000119  -0.000015   0.000032   0.000000   0.000000
   38  I  6  Y    0.000000   0.000000  -0.000000  -0.000007   0.000005
   39  I  6  Z   -0.000000  -0.000000   0.000000  -0.000005  -0.000007
   40  I  6  S    0.000016   0.000087  -0.000483  -0.000000  -0.000000
   41  I  6  X    0.000449   0.000056  -0.000123  -0.000000  -0.000000
   42  I  6  Y   -0.000000  -0.000000   0.000000   0.000025  -0.000019
   43  I  6  Z    0.000002   0.000000  -0.000000   0.000019   0.000025
   44  I  6 XX    0.000118  -0.000016   0.000168   0.000000   0.000000
   45  I  6 YY   -0.000057  -0.000001  -0.000032   0.000011  -0.000005
   46  I  6 ZZ   -0.000057  -0.000001  -0.000032  -0.000012   0.000005
   47  I  6 XY   -0.000000   0.000000  -0.000000  -0.000037   0.000028
   48  I  6 XZ    0.000001  -0.000000   0.000001  -0.000028  -0.000037
   49  I  6 YZ    0.000000  -0.000000  -0.000000  -0.000006  -0.000013
   50  I  6  S   -0.001080  -0.000545   0.000504  -0.000001   0.000000
   51  I  6  X   -0.001158  -0.000147   0.000339   0.000000   0.000000
   52  I  6  Y    0.000001   0.000000  -0.000000  -0.000068   0.000052
   53  I  6  Z   -0.000004  -0.000001   0.000001  -0.000052  -0.000068
   54  I  6 XX    0.000364   0.000530  -0.001680  -0.000000  -0.000001
   55  I  6 YY    0.000913   0.000492  -0.001107  -0.000032   0.000014
   56  I  6 ZZ    0.000913   0.000492  -0.001107   0.000033  -0.000014
   57  I  6 XY    0.000000  -0.000000   0.000000   0.000105  -0.000080
   58  I  6 XZ   -0.000003   0.000000  -0.000002   0.000080   0.000105
   59  I  6 YZ   -0.000000   0.000000   0.000000   0.000017   0.000037
   60  I  6  S   -0.000939   0.000063  -0.001888  -0.000001  -0.000000
   61  I  6  X    0.002720   0.000522  -0.001676  -0.000001  -0.000001
   62  I  6  Y   -0.000001  -0.000000   0.000001   0.000301  -0.000229
   63  I  6  Z    0.000009   0.000002  -0.000006   0.000228   0.000301
   64  I  6  S   -0.000376  -0.002091   0.010868   0.000001   0.000000
   65  I  6  X    0.003802  -0.000558   0.005022   0.000002   0.000003
   66  I  6  Y   -0.000002   0.000000  -0.000002  -0.000625   0.000476
   67  I  6  Z    0.000018  -0.000002   0.000017  -0.000475  -0.000626
   68  I  6 XX    0.006426   0.000738  -0.000569   0.000002   0.000003
   69  I  6 YY    0.000391   0.000729  -0.003260   0.000119  -0.000053
   70  I  6 ZZ    0.000391   0.000729  -0.003261  -0.000121   0.000050
   71  I  6 XY   -0.000004   0.000000  -0.000001  -0.000399   0.000304
   72  I  6 XZ    0.000029   0.000000   0.000010  -0.000302  -0.000400
   73  I  6 YZ    0.000001   0.000000  -0.000000  -0.000062  -0.000136

                     21         22         23         24         25
                   -7.0113    -5.1399    -5.1357    -5.1357    -2.1786
                     A          A          A          A          A   
    1  CL 1  S    0.000000   0.000002  -0.000000  -0.000000   0.000004
    2  CL 1  S    0.000045   0.000006  -0.000000   0.000000  -0.000083
    3  CL 1  X    0.000020   0.000011  -0.000000   0.000000   0.000112
    4  CL 1  Y   -0.000000  -0.000000  -0.000000  -0.000000  -0.000000
    5  CL 1  Z    0.000000   0.000000   0.000000  -0.000000   0.000000
    6  CL 1  S    0.000171   0.000081   0.000000  -0.000000  -0.001076
    7  CL 1  X   -0.000085  -0.000038   0.000000  -0.000000  -0.000408
    8  CL 1  Y    0.000000   0.000000  -0.000001  -0.000001   0.000000
    9  CL 1  Z   -0.000000  -0.000000   0.000001  -0.000001  -0.000002
   10  CL 1  S   -0.001019  -0.000384  -0.000000  -0.000000   0.005708
   11  CL 1  X    0.000662   0.000233   0.000000  -0.000000  -0.003947
   12  CL 1  Y   -0.000001  -0.000000   0.000006   0.000004   0.000004
   13  CL 1  Z    0.000002   0.000001  -0.000004   0.000006  -0.000016
   14  CL 1 XX    0.000022  -0.000002  -0.000000   0.000000   0.000691
   15  CL 1 YY    0.000165   0.000055   0.000002   0.000002  -0.000409
   16  CL 1 ZZ    0.000165   0.000055  -0.000002  -0.000002  -0.000409
   17  CL 1 XY    0.000000   0.000000  -0.000005  -0.000003  -0.000001
   18  CL 1 XZ   -0.000001  -0.000000   0.000003  -0.000005   0.000005
   19  CL 1 YZ   -0.000000  -0.000000   0.000002  -0.000002   0.000000
   20  C  2  S    0.000093   0.000041  -0.000000  -0.000000  -0.001969
   21  C  2  S    0.000516   0.000234  -0.000000   0.000000  -0.001997
   22  C  2  X   -0.000054   0.000068   0.000000  -0.000000  -0.001131
   23  C  2  Y    0.000000  -0.000000   0.000014   0.000008   0.000000
   24  C  2  Z   -0.000000   0.000000  -0.000008   0.000014  -0.000004
   25  C  2  S   -0.001831  -0.000937   0.000000  -0.000000   0.012953
   26  C  2  X    0.001353   0.000666  -0.000000   0.000000  -0.016087
   27  C  2  Y   -0.000001  -0.000000  -0.000148  -0.000088   0.000009
   28  C  2  Z    0.000006   0.000003   0.000087  -0.000148  -0.000061
   29  H  3  S    0.000103   0.000113  -0.000002   0.000023  -0.000971
   30  H  3  S    0.000905   0.000360  -0.000018   0.000211   0.000063
   31  H  4  S    0.000103   0.000113   0.000021  -0.000010  -0.000973
   32  H  4  S    0.000905   0.000360   0.000192  -0.000089   0.000067
   33  H  5  S    0.000103   0.000113  -0.000019  -0.000013  -0.000972
   34  H  5  S    0.000905   0.000360  -0.000173  -0.000121   0.000064
   35  I  6  S   -0.068054   0.000100   0.000000   0.000000   0.000145
   36  I  6  S    0.258557  -0.000380  -0.000000  -0.000000  -0.000193
   37  I  6  X    0.000229   0.204984   0.000468  -0.000622  -0.000386
   38  I  6  Y   -0.000000  -0.000086   0.176548   0.104256   0.000000
   39  I  6  Z    0.000001   0.000774  -0.104255   0.176547  -0.000001
   40  I  6  S   -0.689450   0.001027   0.000000   0.000000   0.002322
   41  I  6  X   -0.000764  -0.701986  -0.001602   0.002132   0.001369
   42  I  6  Y    0.000000   0.000295  -0.604637  -0.357052  -0.000001
   43  I  6  Z   -0.000003  -0.002649   0.357049  -0.604633   0.000005
   44  I  6 XX    0.010731  -0.000408  -0.000001   0.000001  -0.405592
   45  I  6 YY    0.011144   0.000186   0.000003   0.000003   0.202658
   46  I  6 ZZ    0.011144   0.000186  -0.000002  -0.000004   0.202648
   47  I  6 XY    0.000000   0.000000  -0.000231  -0.000136   0.000306
   48  I  6 XZ   -0.000002  -0.000003   0.000137  -0.000231  -0.002643
   49  I  6 YZ    0.000000   0.000000   0.000002  -0.000004   0.000003
   50  I  6  S    1.120309  -0.003067  -0.000000  -0.000000  -0.001556
   51  I  6  X    0.001147   1.164469   0.002658  -0.003537  -0.002720
   52  I  6  Y   -0.000000  -0.000490   1.003163   0.592391   0.000001
   53  I  6  Z    0.000004   0.004395  -0.592385   1.003157  -0.000010
   54  I  6 XX    0.013620   0.001816   0.000003  -0.000003   1.054761
   55  I  6 YY    0.012653   0.000323  -0.000008  -0.000008  -0.525511
   56  I  6 ZZ    0.012653   0.000323   0.000005   0.000011  -0.525487
   57  I  6 XY   -0.000000  -0.000001   0.000573   0.000338  -0.000796
   58  I  6 XZ    0.000004   0.000006  -0.000338   0.000572   0.006867
   59  I  6 YZ   -0.000000  -0.000000  -0.000006   0.000010  -0.000007
   60  I  6  S    0.001706  -0.000182   0.000000  -0.000000   0.007294
   61  I  6  X    0.000712   0.030756   0.000068  -0.000090   0.004086
   62  I  6  Y   -0.000000  -0.000013   0.025612   0.015124  -0.000002
   63  I  6  Z    0.000003   0.000116  -0.015124   0.025612   0.000015
   64  I  6  S   -0.019114  -0.000667   0.000000  -0.000000  -0.017506
   65  I  6  X    0.000048  -0.002910  -0.000007   0.000009  -0.012074
   66  I  6  Y    0.000000   0.000001  -0.002475  -0.001461   0.000005
   67  I  6  Z    0.000000  -0.000011   0.001461  -0.002475  -0.000045
   68  I  6 XX    0.011350   0.000927   0.000000  -0.000001   0.007792
   69  I  6 YY    0.010638   0.000231   0.000002   0.000002  -0.001028
   70  I  6 ZZ    0.010638   0.000231  -0.000003  -0.000002  -0.001028
   71  I  6 XY   -0.000000  -0.000000   0.000097   0.000057  -0.000004
   72  I  6 XZ    0.000003   0.000003  -0.000057   0.000097   0.000038
   73  I  6 YZ    0.000000  -0.000000   0.000003  -0.000003   0.000000

                     26         27         28         29         30
                   -2.1762    -2.1762    -2.1723    -2.1723    -0.9255
                     A          A          A          A          A   
    1  CL 1  S   -0.000000   0.000000  -0.000000   0.000000   0.053930
    2  CL 1  S    0.000000  -0.000000   0.000000  -0.000000  -0.307593
    3  CL 1  X   -0.000000   0.000000   0.000000   0.000000   0.040235
    4  CL 1  Y   -0.000046  -0.000032   0.000010  -0.000006  -0.000030
    5  CL 1  Z    0.000032  -0.000046  -0.000006  -0.000010   0.000154
    6  CL 1  S   -0.000001   0.000000   0.000000   0.000000   0.351883
    7  CL 1  X    0.000001  -0.000000  -0.000000  -0.000000  -0.076771
    8  CL 1  Y    0.000240   0.000169  -0.000049   0.000028   0.000058
    9  CL 1  Z   -0.000169   0.000240   0.000028   0.000049  -0.000296
   10  CL 1  S    0.000003   0.000000  -0.000000  -0.000000   0.304489
   11  CL 1  X   -0.000005   0.000003   0.000000   0.000000  -0.018405
   12  CL 1  Y   -0.000832  -0.000586   0.000090  -0.000052   0.000006
   13  CL 1  Z    0.000586  -0.000832  -0.000051  -0.000090  -0.000049
   14  CL 1 XX    0.000002  -0.000001   0.000000   0.000000   0.038057
   15  CL 1 YY    0.000001   0.000001  -0.000012   0.000011   0.012867
   16  CL 1 ZZ   -0.000002  -0.000001   0.000012  -0.000011   0.012866
   17  CL 1 XY    0.000157   0.000111   0.000009  -0.000005  -0.000021
   18  CL 1 XZ   -0.000111   0.000157  -0.000005  -0.000009   0.000110
   19  CL 1 YZ    0.000002  -0.000001  -0.000012  -0.000013   0.000002
   20  C  2  S    0.000000  -0.000000  -0.000000  -0.000000  -0.144819
   21  C  2  S    0.000001  -0.000001  -0.000000  -0.000000   0.134578
   22  C  2  X   -0.000000   0.000001  -0.000000  -0.000001   0.046517
   23  C  2  Y   -0.000210  -0.000148  -0.000177   0.000101  -0.000043
   24  C  2  Z    0.000148  -0.000210   0.000101   0.000177   0.000201
   25  C  2  S   -0.000005   0.000005   0.000001   0.000002   0.433537
   26  C  2  X    0.000007  -0.000009   0.000003   0.000004   0.049973
   27  C  2  Y    0.003066   0.002163   0.001256  -0.000717  -0.000045
   28  C  2  Z   -0.002160   0.003070  -0.000719  -0.001256   0.000210
   29  H  3  S    0.000171  -0.001010  -0.000012  -0.000164   0.082797
   30  H  3  S   -0.000015   0.000085   0.000126   0.001723  -0.010134
   31  H  4  S   -0.000959   0.000357   0.000148   0.000072   0.082752
   32  H  4  S    0.000089  -0.000033  -0.001558  -0.000753  -0.010141
   33  H  5  S    0.000789   0.000653  -0.000136   0.000093   0.082784
   34  H  5  S   -0.000071  -0.000059   0.001431  -0.000972  -0.010136
   35  I  6  S    0.000000  -0.000000  -0.000000  -0.000000   0.001872
   36  I  6  S   -0.000000  -0.000000  -0.000000  -0.000000  -0.007118
   37  I  6  X   -0.000001   0.000001   0.000000   0.000000  -0.003077
   38  I  6  Y   -0.000194  -0.000137   0.000006  -0.000003   0.000002
   39  I  6  Z    0.000137  -0.000194  -0.000003  -0.000006  -0.000012
   40  I  6  S    0.000000  -0.000000  -0.000000  -0.000000   0.020121
   41  I  6  X    0.000002  -0.000003  -0.000000  -0.000000   0.011177
   42  I  6  Y    0.000691   0.000487  -0.000022   0.000013  -0.000006
   43  I  6  Z   -0.000487   0.000691   0.000013   0.000022   0.000042
   44  I  6 XX   -0.001772   0.001983  -0.000004  -0.000013   0.004593
   45  I  6 YY    0.001314   0.001406  -0.256376   0.239719  -0.002784
   46  I  6 ZZ    0.000457  -0.003390   0.256381  -0.239706  -0.002784
   47  I  6 XY   -0.331306  -0.233429  -0.000702   0.002176  -0.000004
   48  I  6 XZ    0.233433  -0.331291  -0.000306   0.002570   0.000031
   49  I  6 YZ    0.000054  -0.002004  -0.276809  -0.296034  -0.000000
   50  I  6  S   -0.000000   0.000000   0.000000   0.000000  -0.039108
   51  I  6  X   -0.000004   0.000005   0.000000   0.000000  -0.023746
   52  I  6  Y   -0.001376  -0.000970   0.000052  -0.000029   0.000012
   53  I  6  Z    0.000970  -0.001376  -0.000030  -0.000052  -0.000089
   54  I  6 XX    0.004603  -0.005153   0.000011   0.000034  -0.014857
   55  I  6 YY   -0.003415  -0.003655   0.666096  -0.622819   0.005215
   56  I  6 ZZ   -0.001188   0.008806  -0.666108   0.622784   0.005215
   57  I  6 XY    0.860731   0.606446   0.001823  -0.005652   0.000011
   58  I  6 XZ   -0.606457   0.860691   0.000795  -0.006676  -0.000085
   59  I  6 YZ   -0.000141   0.005205   0.719184   0.769133   0.000001
   60  I  6  S    0.000000  -0.000001  -0.000000  -0.000000   0.038156
   61  I  6  X    0.000005  -0.000007  -0.000000  -0.000001   0.020889
   62  I  6  Y    0.001540   0.001084  -0.000119   0.000067  -0.000011
   63  I  6  Z   -0.001085   0.001539   0.000068   0.000118   0.000082
   64  I  6  S   -0.000001   0.000003   0.000001   0.000002   0.046128
   65  I  6  X   -0.000004   0.000005   0.000001   0.000001   0.011646
   66  I  6  Y   -0.001090  -0.000768   0.000108  -0.000061  -0.000003
   67  I  6  Z    0.000768  -0.001090  -0.000062  -0.000107   0.000033
   68  I  6 XX    0.000047  -0.000054  -0.000000  -0.000000   0.001658
   69  I  6 YY   -0.000035  -0.000038   0.006869  -0.006424  -0.004814
   70  I  6 ZZ   -0.000012   0.000089  -0.006870   0.006422  -0.004815
   71  I  6 XY    0.008840   0.006228   0.000011  -0.000054  -0.000002
   72  I  6 XZ   -0.006228   0.008839   0.000013  -0.000061   0.000020
   73  I  6 YZ   -0.000001   0.000053   0.007417   0.007932  -0.000001

                     31         32         33         34         35
                   -0.7626    -0.5915    -0.4820    -0.4820    -0.3207
                     A          A          A          A          A   
    1  CL 1  S   -0.054103   0.016036  -0.000006  -0.000021   0.009327
    2  CL 1  S    0.312783  -0.094612   0.000034   0.000128  -0.057904
    3  CL 1  X    0.019943  -0.040822   0.000136   0.000293  -0.193872
    4  CL 1  Y   -0.000017   0.000035  -0.040364   0.035408   0.000204
    5  CL 1  Z    0.000083  -0.000154  -0.035430  -0.040336  -0.000895
    6  CL 1  S   -0.358092   0.105801  -0.000043  -0.000159   0.067227
    7  CL 1  X   -0.036943   0.082442  -0.000280  -0.000603   0.409705
    8  CL 1  Y    0.000032  -0.000071   0.083428  -0.073185  -0.000430
    9  CL 1  Z   -0.000155   0.000311   0.073230   0.083370   0.001892
   10  CL 1  S   -0.405854   0.170563  -0.000061  -0.000236   0.156228
   11  CL 1  X   -0.001682   0.024059  -0.000187  -0.000388   0.307363
   12  CL 1  Y    0.000002  -0.000019   0.057198  -0.050173  -0.000329
   13  CL 1  Z   -0.000006   0.000082   0.050206   0.057155   0.001440
   14  CL 1 XX   -0.017798  -0.005874   0.000067   0.000131  -0.036131
   15  CL 1 YY   -0.020092   0.008040  -0.001206   0.000616   0.012152
   16  CL 1 ZZ   -0.020092   0.008040   0.001140  -0.000747   0.012150
   17  CL 1 XY   -0.000002   0.000014  -0.012902   0.011306   0.000055
   18  CL 1 XZ    0.000010  -0.000060  -0.011326  -0.012881  -0.000244
   19  CL 1 YZ   -0.000000  -0.000001   0.000706   0.001460   0.000002
   20  C  2  S   -0.141675   0.062850   0.000011   0.000014  -0.020621
   21  C  2  S    0.140362  -0.063897  -0.000011  -0.000019   0.030811
   22  C  2  X   -0.055153  -0.064779  -0.000702  -0.001088  -0.228663
   23  C  2  Y    0.000058   0.000017   0.288129  -0.252930   0.000079
   24  C  2  Z   -0.000262  -0.000326   0.252921   0.288142  -0.000639
   25  C  2  S    0.444965  -0.222021  -0.000046  -0.000028   0.048804
   26  C  2  X   -0.046931  -0.077925  -0.000551  -0.000851  -0.294127
   27  C  2  Y    0.000039   0.000036   0.227371  -0.199597   0.000125
   28  C  2  Z   -0.000215  -0.000361   0.199583   0.227380  -0.000917
   29  H  3  S    0.093932  -0.048235   0.231243   0.098941   0.024529
   30  H  3  S    0.020552  -0.021905   0.163787   0.070070   0.042771
   31  H  4  S    0.094026  -0.048115  -0.029941  -0.249763   0.024385
   32  H  4  S    0.020579  -0.021843  -0.021210  -0.176913   0.042541
   33  H  5  S    0.093953  -0.048149  -0.201325   0.150781   0.024487
   34  H  5  S    0.020557  -0.021860  -0.142599   0.106786   0.042703
   35  I  6  S    0.006526   0.021062   0.000006   0.000007  -0.004853
   36  I  6  S   -0.023775  -0.078060  -0.000024  -0.000028   0.019555
   37  I  6  X   -0.006879  -0.000711   0.000017   0.000024  -0.025907
   38  I  6  Y    0.000003   0.000000  -0.003792   0.003331   0.000013
   39  I  6  Z   -0.000025  -0.000002  -0.003328  -0.003794  -0.000104
   40  I  6  S    0.072473   0.231240   0.000068   0.000078  -0.050000
   41  I  6  X    0.025086   0.002643  -0.000064  -0.000087   0.095026
   42  I  6  Y   -0.000011  -0.000002   0.013884  -0.012193  -0.000049
   43  I  6  Z    0.000092   0.000006   0.012185   0.013888   0.000381
   44  I  6 XX    0.006816  -0.003085  -0.000027  -0.000038   0.010825
   45  I  6 YY   -0.005407  -0.004463  -0.000410   0.000221  -0.004500
   46  I  6 ZZ   -0.005407  -0.004463   0.000434  -0.000187  -0.004500
   47  I  6 XY   -0.000006  -0.000001   0.004405  -0.003872  -0.000009
   48  I  6 XZ    0.000051   0.000005   0.003865   0.004409   0.000071
   49  I  6 YZ   -0.000000  -0.000000   0.000264   0.000455   0.000000
   50  I  6  S   -0.137572  -0.470695  -0.000138  -0.000160   0.114992
   51  I  6  X   -0.054274  -0.006277   0.000140   0.000192  -0.210683
   52  I  6  Y    0.000024   0.000004  -0.030542   0.026824   0.000108
   53  I  6  Z   -0.000199  -0.000014  -0.026805  -0.030552  -0.000845
   54  I  6 XX   -0.020619   0.009725   0.000072   0.000101  -0.025047
   55  I  6 YY    0.012686   0.013731   0.001148  -0.000626   0.017550
   56  I  6 ZZ    0.012686   0.013731  -0.001223   0.000521   0.017550
   57  I  6 XY    0.000017   0.000002  -0.012179   0.010705   0.000025
   58  I  6 XZ   -0.000140  -0.000014  -0.010687  -0.012190  -0.000196
   59  I  6 YZ    0.000001   0.000001  -0.000742  -0.001279  -0.000000
   60  I  6  S    0.147913   0.463716   0.000138   0.000159  -0.093604
   61  I  6  X    0.056549   0.010604  -0.000155  -0.000214   0.243783
   62  I  6  Y   -0.000025  -0.000006   0.034513  -0.030311  -0.000124
   63  I  6  Z    0.000209   0.000029   0.030291   0.034524   0.000976
   64  I  6  S    0.112364   0.505111   0.000207   0.000242  -0.252963
   65  I  6  X    0.006882   0.002621  -0.000084  -0.000119   0.157239
   66  I  6  Y   -0.000002  -0.000002   0.021029  -0.018472  -0.000084
   67  I  6  Z    0.000016   0.000003   0.018456   0.021039   0.000644
   68  I  6 XX    0.010162   0.041866  -0.000042  -0.000060   0.018775
   69  I  6 YY    0.005377   0.029151  -0.001549   0.000833   0.000141
   70  I  6 ZZ    0.005376   0.029150   0.001596  -0.000767   0.000142
   71  I  6 XY   -0.000001  -0.000007   0.007873  -0.006930  -0.000011
   72  I  6 XZ    0.000013   0.000052   0.006905   0.007888   0.000090
   73  I  6 YZ   -0.000002  -0.000002   0.000973   0.001759   0.000000

                     36         37         38         39         40
                   -0.2335    -0.2335    -0.1486    -0.1486    -0.1087
                     A          A          A          A          A   
    1  CL 1  S   -0.000000  -0.000000   0.000001   0.000000   0.006541
    2  CL 1  S   -0.000001   0.000002  -0.000007  -0.000001  -0.038487
    3  CL 1  X    0.001003   0.000567   0.000158  -0.000073   0.158634
    4  CL 1  Y    0.174744  -0.198492  -0.015471  -0.035526  -0.000103
    5  CL 1  Z   -0.198496  -0.174739  -0.035524   0.015448   0.000616
    6  CL 1  S   -0.000008  -0.000006   0.000009  -0.000004   0.038477
    7  CL 1  X   -0.002143  -0.001211  -0.000343   0.000161  -0.342583
    8  CL 1  Y   -0.373033   0.423730   0.033734   0.077465   0.000222
    9  CL 1  Z    0.423738   0.373023   0.077461  -0.033684  -0.001329
   10  CL 1  S    0.000037   0.000008   0.000014   0.000012   0.108422
   11  CL 1  X   -0.002148  -0.001204  -0.000349   0.000153  -0.400486
   12  CL 1  Y   -0.369750   0.420017   0.033941   0.077938   0.000260
   13  CL 1  Z    0.420009   0.369754   0.077935  -0.033889  -0.001544
   14  CL 1 XX    0.000037   0.000024  -0.000023   0.000021   0.011591
   15  CL 1 YY   -0.000329   0.000608   0.000381   0.000504   0.002092
   16  CL 1 ZZ    0.000290  -0.000632  -0.000358  -0.000523   0.002094
   17  CL 1 XY    0.004509  -0.005108   0.001538   0.003523  -0.000016
   18  CL 1 XZ   -0.005121  -0.004496   0.003526  -0.001529   0.000053
   19  CL 1 YZ   -0.000680  -0.000386  -0.000586   0.000457  -0.000003
   20  C  2  S    0.000027   0.000012  -0.000005   0.000010   0.052610
   21  C  2  S   -0.000013  -0.000008  -0.000003  -0.000010  -0.066651
   22  C  2  X    0.000385   0.000224   0.000252  -0.000174  -0.028252
   23  C  2  Y    0.068933  -0.078374  -0.032126  -0.073846   0.000072
   24  C  2  Z   -0.078304  -0.068995  -0.073825   0.032135  -0.000123
   25  C  2  S   -0.000194  -0.000074   0.000053  -0.000048  -0.221030
   26  C  2  X    0.000329   0.000205   0.000229  -0.000177  -0.042642
   27  C  2  Y    0.058733  -0.066866  -0.027880  -0.064126   0.000088
   28  C  2  Z   -0.066712  -0.058861  -0.064077   0.027909  -0.000173
   29  H  3  S   -0.027685  -0.064984  -0.055953  -0.002007  -0.077576
   30  H  3  S   -0.025926  -0.060829  -0.059155  -0.002131  -0.136232
   31  H  4  S    0.070147   0.008510   0.029682  -0.047454  -0.077529
   32  H  4  S    0.065756   0.007973   0.031362  -0.050150  -0.136133
   33  H  5  S   -0.042417   0.056482   0.026234   0.049428  -0.077613
   34  H  5  S   -0.039729   0.052877   0.027721   0.052220  -0.136293
   35  I  6  S    0.000001   0.000000   0.000000  -0.000000   0.001506
   36  I  6  S   -0.000004  -0.000000   0.000000   0.000000  -0.003911
   37  I  6  X   -0.000011  -0.000015   0.000185  -0.000120  -0.048466
   38  I  6  Y   -0.005493   0.006242  -0.022191  -0.050997   0.000033
   39  I  6  Z    0.006238   0.005494  -0.050996   0.022192  -0.000186
   40  I  6  S    0.000010   0.000001   0.000002  -0.000001   0.020063
   41  I  6  X    0.000041   0.000057  -0.000681   0.000441   0.178185
   42  I  6  Y    0.020159  -0.022910   0.081539   0.187380  -0.000122
   43  I  6  Z   -0.022894  -0.020165   0.187378  -0.081540   0.000684
   44  I  6 XX    0.000012   0.000010  -0.000000   0.000002  -0.000130
   45  I  6 YY   -0.000110   0.000208   0.000111   0.000148  -0.000800
   46  I  6 ZZ    0.000098  -0.000219  -0.000111  -0.000150  -0.000799
   47  I  6 XY    0.001949  -0.002213   0.000117   0.000266   0.000002
   48  I  6 XZ   -0.002213  -0.001947   0.000268  -0.000115   0.000003
   49  I  6 YZ   -0.000230  -0.000134  -0.000172   0.000129   0.000000
   50  I  6  S   -0.000023  -0.000009  -0.000001  -0.000002  -0.057875
   51  I  6  X   -0.000091  -0.000126   0.001520  -0.000985  -0.398843
   52  I  6  Y   -0.044774   0.050886  -0.182018  -0.418283   0.000273
   53  I  6  Z    0.050850   0.044787  -0.418281   0.182021  -0.001531
   54  I  6 XX   -0.000035  -0.000026   0.000003  -0.000003   0.025017
   55  I  6 YY    0.000310  -0.000589  -0.000316  -0.000421   0.027741
   56  I  6 ZZ   -0.000280   0.000626   0.000319   0.000430   0.027740
   57  I  6 XY   -0.005514   0.006261  -0.000392  -0.000891  -0.000005
   58  I  6 XZ    0.006261   0.005509  -0.000896   0.000386  -0.000013
   59  I  6 YZ    0.000655   0.000381   0.000491  -0.000369  -0.000000
   60  I  6  S    0.000018  -0.000002   0.000006  -0.000005   0.036361
   61  I  6  X    0.000097   0.000141  -0.001761   0.001142   0.470210
   62  I  6  Y    0.050269  -0.057131   0.210986   0.484852  -0.000321
   63  I  6  Z   -0.057091  -0.050284   0.484849  -0.210988   0.001805
   64  I  6  S    0.000061   0.000001  -0.000024  -0.000008  -0.076210
   65  I  6  X    0.000147   0.000172  -0.002075   0.001334   0.552568
   66  I  6  Y    0.058270  -0.066223   0.247100   0.567853  -0.000379
   67  I  6  Z   -0.066178  -0.058287   0.567845  -0.247110   0.002111
   68  I  6 XX    0.000051   0.000053  -0.000038   0.000039   0.073825
   69  I  6 YY   -0.000556   0.001046   0.000569   0.000749   0.034406
   70  I  6 ZZ    0.000493  -0.001085  -0.000518  -0.000776   0.034409
   71  I  6 XY    0.008352  -0.009478   0.003532   0.008101  -0.000012
   72  I  6 XZ   -0.009483  -0.008340   0.008109  -0.003522   0.000171
   73  I  6 YZ   -0.001161  -0.000667  -0.000866   0.000681  -0.000001

                     41         42         43         44         45
                    0.3565     0.4074     0.4833     0.4833     0.5221
                     A          A          A          A          A   
    1  CL 1  S   -0.015896  -0.003876   0.000009  -0.000004   0.005739
    2  CL 1  S    0.097736   0.029592  -0.000053   0.000021  -0.026821
    3  CL 1  X   -0.092353  -0.050314   0.000067  -0.000035   0.009042
    4  CL 1  Y    0.000079   0.000060   0.010741   0.015042  -0.000004
    5  CL 1  Z   -0.000373  -0.000240  -0.014990   0.010793   0.000027
    6  CL 1  S   -0.115978   0.029629   0.000121  -0.000055   0.136085
    7  CL 1  X    0.194480   0.096633  -0.000165   0.000089  -0.035095
    8  CL 1  Y   -0.000166  -0.000119  -0.028298  -0.039597   0.000029
    9  CL 1  Z    0.000786   0.000462   0.039487  -0.028406  -0.000128
   10  CL 1  S   -0.383391  -0.358645  -0.000092   0.000042  -0.264974
   11  CL 1  X    0.570662   0.457249   0.000126  -0.000036   0.179697
   12  CL 1  Y   -0.000471  -0.000472   0.007319   0.009801  -0.000222
   13  CL 1  Z    0.002268   0.002074  -0.010142   0.006981   0.000869
   14  CL 1 XX    0.041572   0.085809   0.000087  -0.000030   0.055048
   15  CL 1 YY   -0.029498  -0.028308  -0.010934  -0.026630   0.002367
   16  CL 1 ZZ   -0.029500  -0.028301   0.010865   0.026647   0.002376
   17  CL 1 XY   -0.000071  -0.000125   0.003267   0.004240  -0.000065
   18  CL 1 XZ    0.000331   0.000567  -0.004461   0.002971   0.000279
   19  CL 1 YZ    0.000008  -0.000014  -0.030695   0.012636   0.000004
   20  C  2  S    0.056338  -0.141607  -0.000023   0.000020  -0.068707
   21  C  2  S   -0.010194   0.021339   0.000003  -0.000002   0.004825
   22  C  2  X    0.353368   0.189659  -0.000807   0.000413   0.029858
   23  C  2  Y   -0.000200  -0.000111  -0.149278  -0.208180   0.000011
   24  C  2  Z    0.001267   0.000667   0.208188  -0.149263  -0.000029
   25  C  2  S   -0.732574   1.990501   0.000278  -0.000336   1.007594
   26  C  2  X    0.936997   0.489758  -0.004405   0.002263   0.319946
   27  C  2  Y   -0.000514  -0.000321  -0.895155  -1.248421  -0.000067
   28  C  2  Z    0.003345   0.001750   1.248457  -0.895139   0.000397
   29  H  3  S    0.039646  -0.029697  -0.033649   0.061205  -0.029725
   30  H  3  S    0.338129  -0.797963  -0.874795   1.590991  -0.602513
   31  H  4  S    0.039524  -0.029740   0.069778  -0.001460  -0.029727
   32  H  4  S    0.337947  -0.797997   1.814794  -0.037819  -0.604279
   33  H  5  S    0.039613  -0.029732  -0.036174  -0.059736  -0.029743
   34  H  5  S    0.338120  -0.797986  -0.940528  -1.552646  -0.603285
   35  I  6  S    0.002078   0.008023  -0.000007   0.000003  -0.015849
   36  I  6  S   -0.017271  -0.001988  -0.000002   0.000000  -0.021433
   37  I  6  X   -0.013068  -0.007292   0.000016  -0.000009  -0.011607
   38  I  6  Y    0.000005   0.000003   0.002984   0.004157   0.000006
   39  I  6  Z   -0.000053  -0.000025  -0.004158   0.002978  -0.000040
   40  I  6  S    0.002380   0.147749  -0.000131   0.000059  -0.346354
   41  I  6  X    0.047919   0.026967  -0.000060   0.000032   0.042977
   42  I  6  Y   -0.000018  -0.000011  -0.011088  -0.015448  -0.000021
   43  I  6  Z    0.000196   0.000093   0.015453  -0.011068   0.000147
   44  I  6 XX   -0.040526  -0.008439  -0.000006   0.000005   0.002652
   45  I  6 YY    0.022496  -0.006002  -0.005929  -0.014465   0.026299
   46  I  6 ZZ    0.022494  -0.006000   0.005954   0.014452   0.026304
   47  I  6 XY    0.000031  -0.000001  -0.000386  -0.000688   0.000013
   48  I  6 XZ   -0.000284  -0.000001   0.000607  -0.000543  -0.000085
   49  I  6 YZ   -0.000000   0.000004  -0.016705   0.006847   0.000017
   50  I  6  S   -0.048052  -0.301910   0.000238  -0.000109   0.601736
   51  I  6  X   -0.105104  -0.062015   0.000141  -0.000075  -0.099271
   52  I  6  Y    0.000038   0.000026   0.026148   0.036432   0.000049
   53  I  6  Z   -0.000430  -0.000216  -0.036442   0.026104  -0.000340
   54  I  6 XX    0.061317   0.259028  -0.000193   0.000076  -0.618433
   55  I  6 YY   -0.118183   0.252090   0.017015   0.042106  -0.686519
   56  I  6 ZZ   -0.118177   0.252083  -0.017500  -0.041888  -0.686532
   57  I  6 XY   -0.000089   0.000002   0.000938   0.001743  -0.000037
   58  I  6 XZ    0.000809   0.000004  -0.001509   0.001394   0.000244
   59  I  6 YZ    0.000001  -0.000012   0.048521  -0.019888  -0.000050
   60  I  6  S   -0.044727   0.417045  -0.000397   0.000176  -1.085210
   61  I  6  X    0.044537   0.090746  -0.000268   0.000137   0.146437
   62  I  6  Y   -0.000008  -0.000040  -0.052054  -0.072590  -0.000076
   63  I  6  Z    0.000201   0.000335   0.072583  -0.052038   0.000509
   64  I  6  S    0.741105  -1.435993   0.001448  -0.000622   4.392221
   65  I  6  X    0.724289   0.117303   0.000236  -0.000118   0.159730
   66  I  6  Y   -0.000321  -0.000041   0.035219   0.049361  -0.000068
   67  I  6  Z    0.002832   0.000328  -0.049252   0.035488   0.000529
   68  I  6 XX   -0.251802   0.440433  -0.000307   0.000130  -1.260824
   69  I  6 YY   -0.023289   0.436779  -0.042166  -0.101580  -1.132833
   70  I  6 ZZ   -0.023298   0.436792   0.041313   0.101945  -1.132802
   71  I  6 XY    0.000105  -0.000013   0.009865   0.012753   0.000069
   72  I  6 XZ   -0.001036   0.000049  -0.013299   0.008815  -0.000434
   73  I  6 YZ    0.000001   0.000021  -0.117451   0.048231   0.000119

                     46         47         48         49         50
                    0.7074     0.7075     0.7279     0.7279     0.7635
                     A          A          A          A          A   
    1  CL 1  S    0.000001  -0.000007   0.000004   0.000005  -0.022578
    2  CL 1  S   -0.000003   0.000032  -0.000021  -0.000027   0.116276
    3  CL 1  X    0.000062  -0.000092   0.000040   0.000050  -0.020021
    4  CL 1  Y   -0.012752  -0.016162  -0.008224   0.010697   0.000039
    5  CL 1  Z   -0.016157   0.012742  -0.010687  -0.008222  -0.000115
    6  CL 1  S    0.000037  -0.000197   0.000077   0.000117  -0.483588
    7  CL 1  X   -0.000206   0.000303  -0.000121  -0.000156   0.041271
    8  CL 1  Y    0.043711   0.055398   0.025951  -0.033761  -0.000109
    9  CL 1  Z    0.055386  -0.043678   0.033724   0.025953   0.000278
   10  CL 1  S   -0.000105   0.000374  -0.000077  -0.000154   0.568175
   11  CL 1  X    0.000284  -0.000438   0.000054   0.000117   0.020448
   12  CL 1  Y   -0.050679  -0.064205  -0.015535   0.020289   0.000055
   13  CL 1  Z   -0.064225   0.050630  -0.020212  -0.015614  -0.000020
   14  CL 1 XX   -0.000019   0.000019  -0.000006   0.000016  -0.018176
   15  CL 1 YY    0.000461   0.000325   0.006538  -0.005288  -0.080835
   16  CL 1 ZZ   -0.000442  -0.000400  -0.006508   0.005318  -0.080840
   17  CL 1 XY   -0.000087  -0.000126   0.000292  -0.000290  -0.000065
   18  CL 1 XZ   -0.000119   0.000107   0.000355   0.000203   0.000304
   19  CL 1 YZ   -0.000412   0.000526  -0.006120  -0.007529   0.000000
   20  C  2  S    0.000007  -0.000008   0.000005   0.000005   0.028397
   21  C  2  S   -0.000010   0.000029  -0.000003  -0.000010  -0.078495
   22  C  2  X    0.000367  -0.000331  -0.000263  -0.000265   0.249667
   23  C  2  Y   -0.102762  -0.130179   0.050071  -0.065066  -0.000150
   24  C  2  Z   -0.130271   0.102689   0.065107   0.050046   0.000947
   25  C  2  S   -0.000208   0.000171  -0.000100  -0.000105  -0.213101
   26  C  2  X   -0.000148   0.000038  -0.000444  -0.000424  -0.164815
   27  C  2  Y    0.072639   0.092305   0.127081  -0.165419   0.000128
   28  C  2  Z    0.092097  -0.072824   0.165226   0.127221  -0.000592
   29  H  3  S   -0.139791   0.031525  -0.014497  -0.003102  -0.054124
   30  H  3  S    0.067018  -0.015074  -0.283420  -0.060281   0.276211
   31  H  4  S    0.042569  -0.136690   0.004576   0.014161  -0.054347
   32  H  4  S   -0.020292   0.064864   0.089549   0.275852   0.276742
   33  H  5  S    0.097171   0.105231   0.009927  -0.011082  -0.054208
   34  H  5  S   -0.046452  -0.050121   0.193950  -0.215424   0.276464
   35  I  6  S    0.000001  -0.000001   0.000001   0.000000   0.000785
   36  I  6  S   -0.000000   0.000000   0.000001   0.000001   0.002371
   37  I  6  X    0.000053  -0.000051   0.000042   0.000039  -0.060049
   38  I  6  Y   -0.006205  -0.007882  -0.005901   0.007690   0.000026
   39  I  6  Z   -0.007866   0.006217  -0.007670  -0.005913  -0.000265
   40  I  6  S    0.000027  -0.000021   0.000015   0.000011   0.020484
   41  I  6  X   -0.000198   0.000192  -0.000158  -0.000145   0.224744
   42  I  6  Y    0.023247   0.029530   0.022065  -0.028757  -0.000096
   43  I  6  Z    0.029470  -0.023294   0.028683   0.022113   0.000991
   44  I  6 XX   -0.000587   0.000588  -0.000047  -0.000044   0.050355
   45  I  6 YY    0.006492   0.005161  -0.084718   0.068868  -0.027179
   46  I  6 ZZ   -0.005909  -0.005746   0.084763  -0.068825  -0.027169
   47  I  6 XY    0.076089   0.096394   0.004924  -0.007252  -0.000053
   48  I  6 XZ    0.096449  -0.076031   0.006519   0.005667   0.000402
   49  I  6 YZ   -0.005747   0.008034   0.079538   0.097784   0.000022
   50  I  6  S   -0.000078   0.000079  -0.000037  -0.000033   0.072887
   51  I  6  X    0.000483  -0.000468   0.000383   0.000352  -0.548005
   52  I  6  Y   -0.056969  -0.072364  -0.053559   0.069804   0.000235
   53  I  6  Z   -0.072218   0.057082  -0.069624  -0.053676  -0.002416
   54  I  6 XX    0.001779  -0.001780   0.000172   0.000160  -0.177322
   55  I  6 YY   -0.019011  -0.015220   0.248849  -0.202232   0.049468
   56  I  6 ZZ    0.017419   0.016821  -0.248910   0.202167   0.049437
   57  I  6 XY   -0.223214  -0.282780  -0.014450   0.021283   0.000155
   58  I  6 XZ   -0.282942   0.223044  -0.019129  -0.016631  -0.001177
   59  I  6 YZ    0.016883  -0.023599  -0.233601  -0.287188  -0.000065
   60  I  6  S    0.000064  -0.000035   0.000041   0.000026   0.138738
   61  I  6  X   -0.001193   0.001162  -0.000907  -0.000832   1.349106
   62  I  6  Y    0.144396   0.183385   0.126773  -0.165229  -0.000576
   63  I  6  Z    0.183049  -0.144658   0.164798   0.127054   0.005913
   64  I  6  S   -0.000277   0.000215  -0.000202  -0.000157  -0.186784
   65  I  6  X    0.001161  -0.001172   0.000753   0.000700  -1.268966
   66  I  6  Y   -0.141002  -0.178998  -0.102264   0.133283   0.000539
   67  I  6  Z   -0.178746   0.141197  -0.132936  -0.102487  -0.005413
   68  I  6 XX   -0.004616   0.004615  -0.000298  -0.000283   0.369949
   69  I  6 YY    0.053975   0.042751  -0.699152   0.568449  -0.214193
   70  I  6 ZZ   -0.049045  -0.047673   0.699639  -0.568002  -0.214106
   71  I  6 XY    0.617973   0.782874   0.039639  -0.058554  -0.000410
   72  I  6 XZ    0.783328  -0.617493   0.052498   0.045772   0.003102
   73  I  6 YZ   -0.047730   0.066586   0.656463   0.807064   0.000190

                     51         52         53         54         55
                    0.7951     0.7951     0.9008     0.9143     1.0208
                     A          A          A          A          A   
    1  CL 1  S    0.000011  -0.000003  -0.017933  -0.045907  -0.000002
    2  CL 1  S   -0.000060   0.000019   0.102655   0.212869   0.000008
    3  CL 1  X   -0.000070   0.000076   0.191192   0.090808   0.001094
    4  CL 1  Y    0.014158   0.018639  -0.000140  -0.000057   0.218944
    5  CL 1  Z    0.018625  -0.014143   0.000757   0.000314  -0.272691
    6  CL 1  S    0.000223  -0.000049  -0.271735  -1.234950  -0.000063
    7  CL 1  X    0.000243  -0.000254  -0.682965  -0.265015  -0.003821
    8  CL 1  Y   -0.045590  -0.060024   0.000509   0.000157  -0.764130
    9  CL 1  Z   -0.059975   0.045548  -0.002705  -0.000899   0.951714
   10  CL 1  S   -0.000188  -0.000014  -0.112193   1.906033   0.000145
   11  CL 1  X   -0.000281   0.000276   1.111045  -0.163215   0.003532
   12  CL 1  Y    0.030987   0.040847  -0.000901   0.000184   0.726674
   13  CL 1  Z    0.040785  -0.031012   0.004409  -0.000728  -0.905087
   14  CL 1 XX    0.000045  -0.000046   0.115069  -0.350983   0.000049
   15  CL 1 YY   -0.008254  -0.006844  -0.104368  -0.100441   0.009511
   16  CL 1 ZZ    0.008292   0.006866  -0.104364  -0.100430  -0.009558
   17  CL 1 XY   -0.006537  -0.008493  -0.000255   0.000246   0.012155
   18  CL 1 XZ   -0.008569   0.006421   0.001036  -0.001123  -0.015208
   19  CL 1 YZ    0.007872  -0.009629   0.000002  -0.000033   0.023104
   20  C  2  S   -0.000016   0.000013   0.011459  -0.033090  -0.000017
   21  C  2  S    0.000049  -0.000043  -0.061372   0.089350   0.000103
   22  C  2  X   -0.000172   0.000113  -0.054225  -0.210973  -0.000368
   23  C  2  Y    0.013889   0.018282   0.000017   0.000129  -0.073733
   24  C  2  Z    0.018290  -0.013887  -0.000242  -0.000662   0.091773
   25  C  2  S    0.000224  -0.000196  -0.019905   0.281806  -0.000349
   26  C  2  X    0.000345  -0.000308   0.971547  -0.571345   0.000867
   27  C  2  Y   -0.113706  -0.149926  -0.000482   0.000211   0.195037
   28  C  2  Z   -0.149714   0.113867   0.003652  -0.002086  -0.242789
   29  H  3  S    0.076794  -0.015883  -0.142006   0.012482   0.065393
   30  H  3  S    0.267633  -0.055184   0.009856  -0.229379   0.113564
   31  H  4  S   -0.024581   0.074285  -0.141833   0.012426  -0.150975
   32  H  4  S   -0.086296   0.260216   0.009185  -0.228750  -0.261380
   33  H  5  S   -0.052008  -0.058577  -0.141914   0.012404   0.085187
   34  H  5  S   -0.182014  -0.204486   0.009655  -0.229284   0.147763
   35  I  6  S   -0.000001   0.000000  -0.003035  -0.000782  -0.000003
   36  I  6  S   -0.000002   0.000001  -0.010744   0.008055  -0.000004
   37  I  6  X    0.000211  -0.000200   0.028655   0.003096   0.000029
   38  I  6  Y   -0.043131  -0.056784  -0.000014  -0.000004   0.001603
   39  I  6  Z   -0.056789   0.043127   0.000097   0.000015  -0.001995
   40  I  6  S   -0.000018   0.000009  -0.081314   0.002256  -0.000057
   41  I  6  X   -0.000790   0.000748  -0.107497  -0.011458  -0.000108
   42  I  6  Y    0.161455   0.212567   0.000051   0.000014  -0.006017
   43  I  6  Z    0.212584  -0.161441  -0.000365  -0.000056   0.007487
   44  I  6 XX    0.000059  -0.000063   0.085100  -0.064885   0.000040
   45  I  6 YY    0.009831   0.008085  -0.034981   0.031212  -0.001990
   46  I  6 ZZ   -0.009887  -0.008024  -0.034980   0.031205   0.001959
   47  I  6 XY   -0.011092  -0.014739  -0.000060   0.000045   0.001512
   48  I  6 XZ   -0.014622   0.011207   0.000496  -0.000420  -0.001869
   49  I  6 YZ   -0.009354   0.011280  -0.000010   0.000004  -0.004798
   50  I  6  S   -0.000011   0.000003   0.005247  -0.007712   0.000045
   51  I  6  X    0.001928  -0.001826   0.265346   0.026136   0.000268
   52  I  6  Y   -0.393804  -0.518471  -0.000126  -0.000034   0.014819
   53  I  6  Z   -0.518511   0.393770   0.000900   0.000131  -0.018440
   54  I  6 XX   -0.000181   0.000190  -0.333757   0.238768  -0.000186
   55  I  6 YY   -0.028938  -0.023784   0.022957  -0.046062   0.005811
   56  I  6 ZZ    0.029085   0.023618   0.022951  -0.046041  -0.005857
   57  I  6 XY    0.032645   0.043378   0.000179  -0.000134  -0.004350
   58  I  6 XZ    0.043032  -0.032982  -0.001474   0.001244   0.005377
   59  I  6 YZ    0.027526  -0.033194   0.000029  -0.000013   0.014176
   60  I  6  S   -0.000085   0.000040  -0.362483   0.010731  -0.000226
   61  I  6  X   -0.004715   0.004461  -0.735502  -0.014700  -0.000717
   62  I  6  Y    0.959976   1.263898   0.000346   0.000067  -0.037122
   63  I  6  Z    1.263974  -0.959910  -0.002505  -0.000137   0.046192
   64  I  6  S    0.000197  -0.000096   1.186231  -0.431605   0.000669
   65  I  6  X    0.004055  -0.003801   1.152224  -0.279800   0.000726
   66  I  6  Y   -0.822686  -1.083202  -0.000532   0.000067   0.027951
   67  I  6  Z   -1.083210   0.822676   0.004062  -0.000988  -0.034772
   68  I  6 XX    0.000437  -0.000474   0.654658  -0.544326   0.000133
   69  I  6 YY    0.083083   0.068387  -0.577047   0.394090  -0.017729
   70  I  6 ZZ   -0.083632  -0.067831  -0.577029   0.394026   0.017178
   71  I  6 XY   -0.092634  -0.123110  -0.000625   0.000449   0.006846
   72  I  6 XZ   -0.122109   0.093607   0.005128  -0.004101  -0.008409
   73  I  6 YZ   -0.079091   0.095392  -0.000087   0.000037  -0.042381

                     56         57         58         59         60
                    1.0208     1.0990     1.1120     1.1121     1.3694
                     A          A          A          A          A   
    1  CL 1  S    0.000000  -0.020868   0.000121  -0.000070   0.000001
    2  CL 1  S    0.000000   0.097160  -0.000568   0.000326  -0.000003
    3  CL 1  X    0.000615  -0.247392   0.001204  -0.000651  -0.000016
    4  CL 1  Y   -0.272721   0.000017  -0.035949  -0.030449   0.008869
    5  CL 1  Z   -0.218975  -0.000529   0.030718  -0.035766  -0.003426
    6  CL 1  S    0.000005  -0.690784   0.003970  -0.002279   0.000097
    7  CL 1  X   -0.002150   0.903550  -0.004346   0.002331   0.000064
    8  CL 1  Y    0.951861  -0.000012   0.148608   0.125983  -0.030678
    9  CL 1  Z    0.764276   0.001801  -0.126952   0.147948   0.011847
   10  CL 1  S   -0.000009   1.181222  -0.006646   0.003837  -0.000329
   11  CL 1  X    0.002039  -1.280328   0.005678  -0.002968   0.000180
   12  CL 1  Y   -0.905480  -0.000220  -0.316489  -0.269122   0.034372
   13  CL 1  Z   -0.727055  -0.001898   0.270152  -0.315793  -0.013301
   14  CL 1 XX    0.000062  -0.272821  -0.000682   0.000877  -0.000629
   15  CL 1 YY   -0.019988   0.021956   0.020633   0.028293  -0.658514
   16  CL 1 ZZ    0.019938   0.021966  -0.018624  -0.029923   0.659135
   17  CL 1 XY   -0.015629  -0.000673  -0.308888  -0.263117  -0.213335
   18  CL 1 XZ   -0.012604   0.001109   0.263536  -0.308602   0.079939
   19  CL 1 YZ    0.010940   0.000111   0.030571  -0.024330  -0.525653
   20  C  2  S   -0.000003  -0.014446   0.000072  -0.000050  -0.000005
   21  C  2  S    0.000017   0.239265  -0.001415   0.000793  -0.000145
   22  C  2  X   -0.000197   0.302150  -0.004031   0.002806   0.000108
   23  C  2  Y    0.091414  -0.001633  -0.536946  -0.458068   0.272819
   24  C  2  Z    0.073350   0.005065   0.457876  -0.536987  -0.106093
   25  C  2  S   -0.000109  -0.489406   0.002865  -0.001461   0.000114
   26  C  2  X    0.000529  -0.278597   0.005622  -0.004297  -0.000006
[...]
   29  H  3  S    0.172890   0.483030  -0.294966  -0.173852  -0.327336
   30  H  3  S   -0.216364  -0.705504   0.215554   0.332580  -0.616742
   31  H  4  S   -0.905973   0.486822  -0.295305  -0.172415  -0.327138
   32  H  4  S    1.133697  -0.709842   0.215874   0.331200  -0.616990
   33  H  5  S    0.734895   0.485073  -0.295075  -0.173258  -0.327345
   34  H  5  S   -0.920052  -0.707798   0.215636   0.332065  -0.616717
   35  I  6  S    0.000001   0.006125   0.022262  -0.007119   0.001803
   36  I  6  S   -0.000044  -0.058170  -0.096115   0.023662  -0.005150
   37  I  6  X   -0.000012  -0.003390   0.001004  -0.018943   0.008571
   38  I  6  Y   -0.002892   0.000002  -0.000001   0.000011  -0.000003
   39  I  6  Z    0.002090  -0.000018   0.000003  -0.000075   0.000029
   40  I  6  S   -0.000081  -0.005309   0.227799  -0.089147   0.024837
   41  I  6  X    0.000045   0.012476  -0.003645   0.071482  -0.032151
   42  I  6  Y    0.010988  -0.000006   0.000002  -0.000040   0.000012
   43  I  6  Z   -0.007940   0.000067  -0.000010   0.000282  -0.000110
   44  I  6 XX   -0.000010   0.045521  -0.011086   0.032901  -0.018910
   45  I  6 YY    0.002708  -0.015122  -0.000743  -0.011883   0.007885
   46  I  6 ZZ   -0.002675  -0.015125  -0.000744  -0.011882   0.007882
   47  I  6 XY   -0.013578  -0.000034   0.000007  -0.000011   0.000021
   48  I  6 XZ    0.009822   0.000230  -0.000047   0.000179  -0.000137
   49  I  6 YZ    0.003577  -0.000010  -0.000000  -0.000002  -0.000005
   50  I  6  S    0.000062   0.177916   0.670586  -0.319205   0.126191
   51  I  6  X   -0.000112  -0.026756   0.007466  -0.179257   0.077987
   52  I  6  Y   -0.028719   0.000013  -0.000004   0.000102  -0.000029
   53  I  6  Z    0.020754  -0.000153   0.000020  -0.000707   0.000265
   54  I  6 XX   -0.000262  -0.558333  -0.849863   0.211207  -0.046752
   55  I  6 YY   -0.008436  -0.372807  -0.880771   0.351397  -0.130422
   56  I  6 ZZ    0.007763  -0.372798  -0.880769   0.351393  -0.130416
   57  I  6 XY    0.040662   0.000105  -0.000021   0.000036  -0.000065
   58  I  6 XZ   -0.029414  -0.000705   0.000139  -0.000563   0.000424
   59  I  6 YZ   -0.010765   0.000030   0.000001   0.000005   0.000015
   60  I  6  S   -0.000324   0.131358   1.613944  -0.696384   0.231733
   61  I  6  X    0.000193  -0.081056   0.006781   0.403278  -0.124549
   62  I  6  Y    0.103935   0.000039  -0.000004  -0.000261   0.000026
   63  I  6  Z   -0.075119  -0.000083   0.000043   0.001634  -0.000350
   64  I  6  S    0.002858   3.024180   3.508766  -0.563039   0.221158
   65  I  6  X    0.000830   1.014175  -0.050085   0.621429  -0.232930
   66  I  6  Y   -0.174987  -0.000492   0.000032  -0.000149   0.000186
   67  I  6  Z    0.126503   0.003356  -0.000177   0.002170  -0.001128
   68  I  6 XX   -0.000476  -0.301835  -2.044643   1.433316  -0.562220
   69  I  6 YY    0.028941  -1.238969  -1.952714   0.488561  -0.118231
   70  I  6 ZZ   -0.030232  -1.239001  -1.952718   0.488581  -0.118256
   71  I  6 XY   -0.137960  -0.000530   0.000065  -0.000371   0.000316
   72  I  6 XZ    0.099809   0.003699  -0.000397   0.003963  -0.002151
   73  I  6 YZ    0.039341  -0.000120   0.000003  -0.000019  -0.000052

                     71         72         73
                    4.5869     7.2627   230.0809
                     A          A          A   
    1  CL 1  S    0.120948   0.000786  -0.000008
    2  CL 1  S   -1.571233  -0.014926   0.000363
    3  CL 1  X   -0.015064  -0.000825  -0.000009
    4  CL 1  Y    0.000010   0.000002  -0.000000
    5  CL 1  Z   -0.000056  -0.000002  -0.000000
    6  CL 1  S    4.807773   0.011894   0.001114
    7  CL 1  X    0.075541   0.007141  -0.000163
    8  CL 1  Y   -0.000051  -0.000010   0.000000
    9  CL 1  Z    0.000280   0.000022  -0.000000
   10  CL 1  S    1.001524   0.112448  -0.007288
   11  CL 1  X   -0.198110  -0.067235   0.004531
   12  CL 1  Y    0.000132   0.000055  -0.000004
   13  CL 1  Z   -0.000730  -0.000238   0.000016
   14  CL 1 XX   -2.302748  -0.014553  -0.000087
   15  CL 1 YY   -2.352447  -0.033416   0.001159
   16  CL 1 ZZ   -2.352451  -0.033418   0.001160
   17  CL 1 XY   -0.000039  -0.000017   0.000001
   18  CL 1 XZ    0.000213   0.000077  -0.000005
   19  CL 1 YZ    0.000013   0.000005  -0.000000
   20  C  2  S   -0.006558  -0.009998   0.000572
   21  C  2  S   -0.103061  -0.044526   0.002068
   22  C  2  X    0.002339  -0.016714   0.001166
   23  C  2  Y    0.000001   0.000005  -0.000000
   24  C  2  Z   -0.000001  -0.000059   0.000004
   25  C  2  S    0.205004   0.200768  -0.012722
   26  C  2  X   -0.107076  -0.131238   0.010305
   27  C  2  Y    0.000042   0.000085  -0.000006
   28  C  2  Z   -0.000302  -0.000527   0.000040
   29  H  3  S    0.005235  -0.007464   0.000476
   30  H  3  S   -0.173778  -0.110515   0.007055
   31  H  4  S    0.005334  -0.007472   0.000475
   32  H  4  S   -0.173600  -0.110528   0.007055
   33  H  5  S    0.005263  -0.007460   0.000475
   34  H  5  S   -0.173752  -0.110533   0.007056
   35  I  6  S    0.000258  -0.052764  -0.683388
   36  I  6  S   -0.005749   0.354975   3.921971
   37  I  6  X    0.002203   0.002325  -0.000126
   38  I  6  Y   -0.000001  -0.000001   0.000000
   39  I  6  Z    0.000008   0.000009  -0.000000
   40  I  6  S   -0.007495  -0.171609  20.873584
   41  I  6  X   -0.008387  -0.008803   0.000496
   42  I  6  Y    0.000004   0.000004  -0.000000
   43  I  6  Z   -0.000031  -0.000033   0.000002
   44  I  6 XX    0.001841  -0.057023 -10.131623
   45  I  6 YY    0.000552  -0.053818 -10.131879
   46  I  6 ZZ    0.000551  -0.053818 -10.131879
   47  I  6 XY   -0.000001   0.000001  -0.000000
   48  I  6 XZ    0.000003  -0.000015   0.000001
   49  I  6 YZ   -0.000000  -0.000000   0.000000
   50  I  6  S   -0.057298  15.697101  -2.775183
   51  I  6  X    0.021874   0.022281  -0.001272
   52  I  6  Y   -0.000010  -0.000011   0.000001
   53  I  6  Z    0.000082   0.000082  -0.000005
   54  I  6 XX   -0.000145  -8.311133   1.247111
   55  I  6 YY    0.003485  -8.321250   1.247985
   56  I  6 ZZ    0.003486  -8.321249   1.247985
   57  I  6 XY    0.000003  -0.000004   0.000000
   58  I  6 XZ   -0.000008   0.000048  -0.000004
   59  I  6 YZ    0.000000   0.000001  -0.000000
   60  I  6  S   -0.052126   6.872959  -0.850313
   61  I  6  X   -0.071315  -0.059327   0.003289
   62  I  6  Y    0.000035   0.000031  -0.000002
   63  I  6  Z   -0.000260  -0.000216   0.000012
   64  I  6  S    0.238879   3.028070  -0.250490
   65  I  6  X    0.063330   0.008297   0.000868
   66  I  6  Y   -0.000035  -0.000011   0.000000
   67  I  6  Z    0.000204   0.000010   0.000005
   68  I  6 XX   -0.088468  -2.361991   0.222182
   69  I  6 YY   -0.078669  -2.299034   0.217093
   70  I  6 ZZ   -0.078676  -2.299039   0.217093
   71  I  6 XY   -0.000000   0.000029  -0.000002
   72  I  6 XZ   -0.000076  -0.000290   0.000023
   73  I  6 YZ   -0.000002  -0.000006   0.000000
 ...... END OF RHF CALCULATION ......
 STEP CPU TIME =     0.43 TOTAL CPU TIME =        0.7 (    0.0 MIN)
 TOTAL WALL CLOCK TIME=        0.7 SECONDS, CPU UTILIZATION IS  97.30%

     ----------------------------------------------------------------
     PROPERTY VALUES FOR THE RHF   SELF-CONSISTENT FIELD WAVEFUNCTION
     ----------------------------------------------------------------

          -----------------
          ENERGY COMPONENTS
          -----------------

         WAVEFUNCTION NORMALIZATION =       1.0000000000

                ONE ELECTRON ENERGY =  -10714.7695303163
                TWO ELECTRON ENERGY =    3061.7053095526
           NUCLEAR REPULSION ENERGY =     268.3849917894
                                      ------------------
                       TOTAL ENERGY =   -7384.6792289743

 ELECTRON-ELECTRON POTENTIAL ENERGY =    3061.7053095526
  NUCLEUS-ELECTRON POTENTIAL ENERGY =  -18075.5765650098
   NUCLEUS-NUCLEUS POTENTIAL ENERGY =     268.3849917894
                                      ------------------
             TOTAL POTENTIAL ENERGY =  -14745.4862636678
               TOTAL KINETIC ENERGY =    7360.8070346935
                 VIRIAL RATIO (V/T) =       2.0032431490

          ---------------------------------------
          MULLIKEN AND LOWDIN POPULATION ANALYSES
          ---------------------------------------

     ATOMIC MULLIKEN POPULATION IN EACH MOLECULAR ORBITAL

                      1          2          3          4          5

                  2.000000   2.000000   2.000000   2.000000   2.000000

    1             0.000000  -0.000000  -0.000000  -0.000000  -0.000000
    2             0.000001  -0.000005  -0.000003  -0.000000  -0.000000
    3            -0.000000   0.000000   0.000000   0.000000   0.000000
    4            -0.000000   0.000000   0.000000   0.000000   0.000000
    5            -0.000000   0.000000   0.000000   0.000000   0.000000
    6             2.000000   2.000005   2.000002   2.000000   2.000000

                      6          7          8          9         10

                  2.000000   2.000000   2.000000   2.000000   2.000000

    1             1.999959  -0.000000   0.000000   0.000000   0.000000
    2             0.000024  -0.000015   0.000030   0.000000   0.000000
    3             0.000006   0.000000  -0.000002  -0.000000  -0.000000
    4             0.000006   0.000000  -0.000002  -0.000000  -0.000000
    5             0.000006   0.000000  -0.000002  -0.000000  -0.000000
    6            -0.000000   2.000014   1.999977   2.000001   2.000001

                     11         12         13         14         15

                  2.000000   2.000000   2.000000   2.000000   2.000000

    1            -0.000000  -0.000000  -0.000000  -0.000000  -0.000000
    2             0.000066   0.000004   0.000004  -0.000000  -0.000000
    3             0.000000   0.000000   0.000000   0.000000   0.000000
    4             0.000000   0.000000   0.000000   0.000000   0.000000
    5             0.000000   0.000000   0.000000   0.000000   0.000000
    6             1.999933   1.999996   1.999996   2.000000   2.000000

                     16         17         18         19         20

                  2.000000   2.000000   2.000000   2.000000   2.000000

    1             0.000978   1.999734   2.000322   1.999946   1.999946
    2             1.989088   0.000104  -0.000693  -0.000007  -0.000007
    3             0.003070   0.000055   0.000127   0.000033   0.000009
    4             0.003070   0.000055   0.000127   0.000000   0.000041
    5             0.003070   0.000055   0.000127   0.000029   0.000012
    6             0.000723  -0.000002  -0.000011  -0.000000  -0.000000

                     21         22         23         24         25

                  2.000000   2.000000   2.000000   2.000000   2.000000

    1            -0.000000  -0.000000   0.000000   0.000000   0.000018
    2            -0.000280  -0.000140  -0.000004  -0.000004   0.002561
    3             0.000022   0.000010   0.000000   0.000002  -0.000002
    4             0.000022   0.000010   0.000002   0.000000  -0.000002
    5             0.000022   0.000010   0.000002   0.000001  -0.000002
    6             2.000214   2.000112   2.000001   2.000001   1.997428

                     26         27         28         29         30

                  2.000000   2.000000   2.000000   2.000000   2.000000

    1            -0.000001  -0.000001  -0.000000  -0.000000   1.004036
    2             0.000181   0.000181   0.000000   0.000000   0.857514
    3            -0.000000  -0.000001   0.000000   0.000008   0.035970
    4            -0.000000  -0.000000   0.000007   0.000002   0.035913
    5            -0.000000  -0.000000   0.000006   0.000003   0.035954
    6             1.999820   1.999820   1.999987   1.999987   0.030613

                     31         32         33         34         35

                  2.000000   2.000000   2.000000   2.000000   2.000000

    1             0.892869   0.113894   0.098921   0.098794   0.943656
    2             0.704365   0.159612   1.107940   1.108028   0.587432
    3             0.067291   0.016130   0.433869   0.079422   0.006130
    4             0.067441   0.016039   0.007273   0.506147   0.006055
    5             0.067326   0.016066   0.328872   0.184460   0.006108
    6             0.200709   1.678258   0.023124   0.023150   0.450619

                     36         37         38         39         40

                  2.000000   2.000000   2.000000   2.000000   2.000000

    1             1.867365   1.867215   0.035116   0.035101   0.579782
    2             0.045597   0.045723   0.017734   0.017752   0.036040
    3             0.003724   0.020522   0.010806   0.000014   0.029997
    4             0.023940   0.000352   0.003037   0.007765   0.029941
    5             0.008746   0.015508   0.002373   0.008426   0.030023
    6             0.050628   0.050679   1.930934   1.930941   1.294218

               ----- POPULATIONS IN EACH AO -----
                             MULLIKEN      LOWDIN
              1  CL 1  S      1.99474     1.99708
              2  CL 1  S      1.86578     1.87934
              3  CL 1  X      1.96699     1.94614
              4  CL 1  Y      1.97108     1.95313
              5  CL 1  Z      1.97108     1.95313
              6  CL 1  S      1.14979     0.61977
              7  CL 1  X      0.93526     0.92729
              8  CL 1  Y      1.03677     1.03321
              9  CL 1  Z      1.03677     1.03320
             10  CL 1  S      0.91028     0.62193
             11  CL 1  X      0.67198     0.75132
             12  CL 1  Y      0.99092     1.00556
             13  CL 1  Z      0.99092     1.00555
             14  CL 1 XX      0.02632     0.26314
             15  CL 1 YY      0.00707     0.27106
             16  CL 1 ZZ      0.00707     0.27106
             17  CL 1 XY      0.00240     0.00293
             18  CL 1 XZ      0.00240     0.00293
             19  CL 1 YZ      0.00003     0.00003
             20  C  2  S      1.98994     1.97864
             21  C  2  S      0.38803     0.47960
             22  C  2  X      0.27165     0.25973
             23  C  2  Y      0.61738     0.57952
             24  C  2  Z      0.61738     0.57952
             25  C  2  S      1.18965     0.60344
             26  C  2  X      0.49643     0.54103
             27  C  2  Y      0.55418     0.58420
             28  C  2  Z      0.55417     0.58421
             29  H  3  S      0.48371     0.49055
             30  H  3  S      0.22350     0.38166
             31  H  4  S      0.48373     0.49056
             32  H  4  S      0.22351     0.38168
             33  H  5  S      0.48370     0.49055
             34  H  5  S      0.22350     0.38167
             35  I  6  S      1.98233     1.99701
             36  I  6  S      2.06554     1.95658
             37  I  6  X      1.99928     1.99934
             38  I  6  Y      1.99935     1.99939
             39  I  6  Z      1.99935     1.99939
             40  I  6  S      2.12886     0.91609
             41  I  6  X      1.99895     1.99176
             42  I  6  Y      1.99905     1.99239
             43  I  6  Z      1.99905     1.99239
             44  I  6 XX      1.26883     1.70160
             45  I  6 YY      1.26941     1.70171
             46  I  6 ZZ      1.26941     1.70171
             47  I  6 XY      1.99611     1.99413
             48  I  6 XZ      1.99611     1.99413
             49  I  6 YZ      1.99624     1.99422
             50  I  6  S      2.01193     0.97950
             51  I  6  X      1.98859     1.91638
             52  I  6  Y      1.98956     1.92347
             53  I  6  Z      1.98956     1.92347
             54  I  6 XX      1.34133     1.64225
             55  I  6 YY      1.33850     1.64214
             56  I  6 ZZ      1.33850     1.64214
             57  I  6 XY      1.99702     1.93789
             58  I  6 XZ      1.99702     1.93789
             59  I  6 YZ      1.99690     1.93815
             60  I  6  S      0.87459     0.68591
             61  I  6  X      0.83761     0.88537
             62  I  6  Y      0.86731     0.92556
             63  I  6  Z      0.86730     0.92556
             64  I  6  S      0.93640     0.51360
             65  I  6  X      0.85456     0.87262
             66  I  6  Y      1.14569     1.15224
             67  I  6  Z      1.14568     1.15224
             68  I  6 XX      0.05640     0.30428
             69  I  6 YY      0.04593     0.30112
             70  I  6 ZZ      0.04593     0.30112
             71  I  6 XY      0.01040     0.07660
             72  I  6 XZ      0.01039     0.07660
             73  I  6 YZ      0.00691     0.06772

          ----- MULLIKEN ATOMIC OVERLAP POPULATIONS -----
          (OFF-DIAGONAL ELEMENTS NEED TO BE MULTIPLIED BY 2)

             1           2           3           4           5

    1   17.9030766
    2   -0.0983722   5.5797025
    3   -0.1060046   0.4235782   0.4866049
    4   -0.1057504   0.4235150  -0.0042193   0.4865376
    5   -0.1059710   0.4236011  -0.0041970  -0.0042143   0.4866122
    6    0.0506710  -0.0732033  -0.0885491  -0.0886261  -0.0886325

             6

    6   53.9502150

          TOTAL MULLIKEN AND LOWDIN ATOMIC POPULATIONS
       ATOM         MULL.POP.    CHARGE          LOW.POP.     CHARGE
    1 CL           17.537649   -0.537649        17.537788   -0.537788
    2 C             6.678821   -0.678821         6.189886   -0.189886
    3 H             0.707213    0.292787         0.872210    0.127790
    4 H             0.707242    0.292758         0.872240    0.127760
    5 H             0.707199    0.292801         0.872219    0.127781
    6 I            53.661875   -0.661875        53.655657   -0.655657

          -------------------------------
          BOND ORDER AND VALENCE ANALYSIS     BOND ORDER THRESHOLD=0.050
          -------------------------------

                   BOND                       BOND                       BOND
  ATOM PAIR DIST  ORDER      ATOM PAIR DIST  ORDER      ATOM PAIR DIST  ORDER
    1   2  1.929  0.478        1   6  4.236  0.112        2   3  1.061  0.886
    2   4  1.061  0.886        2   5  1.061  0.886        2   6  2.308  0.413

                       TOTAL       BONDED        FREE
      ATOM            VALENCE     VALENCE     VALENCE
    1 CL                0.508       0.508       0.000
    2 C                 3.549       3.549      -0.000
    3 H                 0.847       0.847      -0.000
    4 H                 0.847       0.847       0.000
    5 H                 0.847       0.847      -0.000
    6 I                 0.474       0.474      -0.000

          ---------------------
          ELECTROSTATIC MOMENTS
          ---------------------

 POINT   1           X           Y           Z (BOHR)    CHARGE
                -0.045638    0.065013   -0.044719       -1.00 (A.U.)
         DX          DY          DZ         /D/  (DEBYE)
    -3.333369    0.002718   -0.013330    3.333397
 ...... END OF PROPERTY EVALUATION ......
 STEP CPU TIME =     0.01 TOTAL CPU TIME =        0.7 (    0.0 MIN)
 TOTAL WALL CLOCK TIME=        0.8 SECONDS, CPU UTILIZATION IS  96.05%
      580000  WORDS OF DYNAMIC MEMORY USED
 EXECUTION OF GAMESS TERMINATED NORMALLY Mon Nov 14 12:19:12 2011
 DDI: 263224 bytes (0.3 MB / 0 MWords) used by master data server.

 ----------------------------------------
 CPU timing information for all processes
 ========================================
 0: 0.616 + 0.128 = 0.744
 ----------------------------------------
 ddikick.x: exited gracefully.
unset echo
----- accounting info -----
Files used on the master node idhi were:
-rw-r--r-- 1 koushik koushik      525 2011-11-14 12:19 /home/koushik/Desktop/gamess/iodochloromethane.F05
-rw-r--r-- 1 koushik koushik 18001200 2011-11-14 12:19 /home/koushik/Desktop/gamess/iodochloromethane.F08
-rw-r--r-- 1 koushik koushik  1047040 2011-11-14 12:19 /home/koushik/Desktop/gamess/iodochloromethane.F10
Mon Nov 14 12:19:15 IST 2011
0.1u 0.0s 0:03.85 3.1% 0+0k 0+32io 0pf+0w
