          ******************************************************
          *         GAMESS VERSION =  1 OCT 2010 (R1)          *
          *             FROM IOWA STATE UNIVERSITY             *
          * M.W.SCHMIDT, K.K.BALDRIDGE, J.A.BOATZ, S.T.ELBERT, *
          *   M.S.GORDON, J.H.JENSEN, S.KOSEKI, N.MATSUNAGA,   *
          *          K.A.NGUYEN, S.J.SU, T.L.WINDUS,           *
          *       TOGETHER WITH M.DUPUIS, J.A.MONTGOMERY       *
          *         J.COMPUT.CHEM.  14, 1347-1363(1993)        *
          **************** 32 BIT LINUX VERSION ****************

  SINCE 1993, STUDENTS AND POSTDOCS WORKING AT IOWA STATE UNIVERSITY
  AND ALSO IN THEIR VARIOUS JOBS AFTER LEAVING ISU HAVE MADE IMPORTANT
  CONTRIBUTIONS TO THE CODE:
     IVANA ADAMOVIC, CHRISTINE AIKENS, YURI ALEXEEV, POOJA ARORA,
     ANDREY ASADCHEV, ROB BELL, PRADIPTA BANDYOPADHYAY, JONATHAN BENTZ,
     BRETT BODE, GALINA CHABAN, WEI CHEN, CHEOL HO CHOI, PAUL DAY, TIM DUDLEY,
     DMITRI FEDOROV, GRAHAM FLETCHER, MARK FREITAG, KURT GLAESEMANN, DAN KEMP,
     GRANT MERRILL, NORIYUKI MINEZAWA, JONATHAN MULLIN, TAKESHI NAGATA,
     SEAN NEDD, HEATHER NETZLOFF, BOSILJKA NJEGIC, RYAN OLSON, MIKE PAK,
     JIM SHOEMAKER, LYUDMILA SLIPCHENKO, SAROM SOK, JIE SONG,
     TETSUYA TAKETSUGU, SIMON WEBB, SOOHAENG YOO, FEDERICO ZAHARIEV

  ADDITIONAL CODE HAS BEEN PROVIDED BY COLLABORATORS IN OTHER GROUPS:
     IOWA STATE UNIVERSITY:
          JOE IVANIC, LAIMUTIS BYTAUTAS, KLAUS RUEDENBERG
     UNIVERSITY OF TOKYO: KIMIHIKO HIRAO, TAKAHITO NAKAJIMA,
          TAKAO TSUNEDA, MUNEAKI KAMIYA, SUSUMU YANAGISAWA,
          KIYOSHI YAGI, MAHITO CHIBA, SEIKEN TOKURA, NAOAKI KAWAKAMI
     UNIVERSITY OF AARHUS: FRANK JENSEN
     UNIVERSITY OF IOWA: VISVALDAS KAIRYS, HUI LI
     NATIONAL INST. OF STANDARDS AND TECHNOLOGY: WALT STEVENS, DAVID GARMER
     UNIVERSITY OF PISA: BENEDETTA MENNUCCI, JACOPO TOMASI
     UNIVERSITY OF MEMPHIS: HENRY KURTZ, PRAKASHAN KORAMBATH
     UNIVERSITY OF ALBERTA: TOBY ZENG, MARIUSZ KLOBUKOWSKI
     UNIVERSITY OF NEW ENGLAND: MARK SPACKMAN
     MIE UNIVERSITY: HIROAKI UMEDA
     MICHIGAN STATE UNIVERSITY:
          KAROL KOWALSKI, MARTA WLOCH, JEFFREY GOUR, JESSE LUTZ, PIOTR PIECUCH
     UNIVERSITY OF SILESIA: MONIKA MUSIAL, STANISLAW KUCHARSKI
     FACULTES UNIVERSITAIRES NOTRE-DAME DE LA PAIX:
          OLIVIER QUINET, BENOIT CHAMPAGNE
     UNIVERSITY OF CALIFORNIA - SANTA BARBARA: BERNARD KIRTMAN
     INSTITUTE FOR MOLECULAR SCIENCE:
          KAZUYA ISHIMURA, MICHIO KATOUDA, AND SHIGERU NAGASE
     UNIVERSITY OF NOTRE DAME: DAN CHIPMAN
     KYUSHU UNIVERSITY:
          HARUYUKI NAKANO,
          FENG LONG GU, JACEK KORCHOWIEC, MARCIN MAKOWSKI, AND YURIKO AOKI,
          HIROTOSHI MORI AND EISAKU MIYOSHI
     PENNSYLVANIA STATE UNIVERSITY:
          TZVETELIN IORDANOV, CHET SWALINA, JONATHAN SKONE,
          SHARON HAMMES-SCHIFFER
     WASEDA UNIVERSITY:
          MASATO KOBAYASHI, TOMOKO AKAMA, HIROMI NAKAI
     UNIVERSITY OF NEBRASKA:
          PEIFENG SU, DEJUN SI, YALI WANG, HUI LI
     UNIVERSITY OF ZURICH:
          ROBERTO PEVERATI, KIM BALDRIDGE
     N. COPERNICUS UNIVERSITY AND JACKSON STATE UNIVERSITY:
          MARIA BARYSZ

 EXECUTION OF GAMESS BEGUN Mon Oct  3 11:37:10 2011

            ECHO OF THE FIRST FEW INPUT CARDS -
 INPUT CARD> $CONTRL RUNTYP=OPTIMIZE COORD=ZMT UNITS=ANGS $END                              
 INPUT CARD> $BASIS GBASIS=N31 NGAUSS=6 NDFUNC=1 $END                                       
 INPUT CARD> $DATA                                                                          
 INPUT CARD>6-31g(d)/ Ammonia Optimization                                                  
 INPUT CARD>Cnv 3                                                                           
 INPUT CARD>                                                                                
 INPUT CARD>N                                                                               
 INPUT CARD>H 1 1.1                                                                         
 INPUT CARD>H 1 1.1 2 109.4712                                                              
 INPUT CARD>H 1 1.1 2 109.4712 3 -119.9999                                                  
 INPUT CARD> $END                                                                           
    1000000 WORDS OF MEMORY AVAILABLE

     BASIS OPTIONS
     -------------
     GBASIS=N31          IGAUSS=       6      POLAR=POPN31  
     NDFUNC=       1     NFFUNC=       0     DIFFSP=       F
     NPFUNC=       0      DIFFS=       F     BASNAM=        


     RUN TITLE
     ---------
 6-31g(d)/ Ammonia Optimization                                                  

 THE POINT GROUP OF THE MOLECULE IS CNV     
 THE ORDER OF THE PRINCIPAL AXIS IS     3

 YOUR FULLY SUBSTITUTED Z-MATRIX IS
 N   
 H      1   1.1000000
 H      1   1.1000000  2  109.4712
 H      1   1.1000000  2  109.4712  3 -119.9999  0

 THE MOMENTS OF INERTIA ARE (AMU-ANGSTROM**2)
 IXX=     1.960   IYY=     1.960   IZZ=     3.252

 ATOM      ATOMIC                      COORDINATES (BOHR)
           CHARGE         X                   Y                   Z
 N           7.0    -0.0000000728        0.0000000000        0.1230412822
 H           1.0     0.9799076991       -1.6972499216       -0.5698596511
 H           1.0     0.9799076991        1.6972499216       -0.5698596511
 H           1.0    -1.9598153983        0.0000000000       -0.5698596511

          INTERNUCLEAR DISTANCES (ANGS.)
          ------------------------------

                1 N          2 H          3 H          4 H     

   1 N       0.0000000    1.1000001 *  1.1000001 *  1.1000000 *
   2 H       1.1000001 *  0.0000000    1.7962921 *  1.7962921 *
   3 H       1.1000001 *  1.7962921 *  0.0000000    1.7962921 *
   4 H       1.1000000 *  1.7962921 *  1.7962921 *  0.0000000  

  * ... LESS THAN  3.000


     ATOMIC BASIS SET
     ----------------
 THE CONTRACTED PRIMITIVE FUNCTIONS HAVE BEEN UNNORMALIZED
 THE CONTRACTED BASIS FUNCTIONS ARE NOW NORMALIZED TO UNITY

  SHELL TYPE  PRIMITIVE        EXPONENT          CONTRACTION COEFFICIENT(S)

 N         

      1   S       1          4173.5114600    0.001834772160
      1   S       2           627.4579110    0.013994627002
      1   S       3           142.9020930    0.068586551812
      1   S       4            40.2343293    0.232240873040
      1   S       5            12.8202129    0.469069948082
      1   S       6             4.3904370    0.360455199063

      2   L       7            11.6263619   -0.114961181702    0.067579743878
      2   L       8             2.7162798   -0.169117478561    0.323907295893
      2   L       9             0.7722184    1.145851947027    0.740895139755

      3   L      10             0.2120315    1.000000000000    1.000000000000

      4   D      11             0.8000000    1.000000000000

 H         

      9   S      12            18.7311370    0.033494604338
      9   S      13             2.8253944    0.234726953484
      9   S      14             0.6401217    0.813757326146

     10   S      15             0.1612778    1.000000000000

 TOTAL NUMBER OF BASIS SET SHELLS             =   10
 NUMBER OF CARTESIAN GAUSSIAN BASIS FUNCTIONS =   21
 NUMBER OF ELECTRONS                          =   10
 CHARGE OF MOLECULE                           =    0
 SPIN MULTIPLICITY                            =    1
 NUMBER OF OCCUPIED ORBITALS (ALPHA)          =    5
 NUMBER OF OCCUPIED ORBITALS (BETA )          =    5
 TOTAL NUMBER OF ATOMS                        =    4
 THE NUCLEAR REPULSION ENERGY IS       10.9862570551

     $CONTRL OPTIONS
     ---------------
 SCFTYP=RHF          RUNTYP=OPTIMIZE     EXETYP=RUN     
 MPLEVL=       0     CITYP =NONE         CCTYP =NONE         VBTYP =NONE    
 DFTTYP=NONE         TDDFT =NONE    
 MULT  =       1     ICHARG=       0     NZVAR =       0     COORD =ZMT     
 PP    =NONE         RELWFN=NONE         LOCAL =NONE         NUMGRD=       F
 ISPHER=      -1     NOSYM =       0     MAXIT =      30     UNITS =ANGS    
 PLTORB=       F     MOLPLT=       F     AIMPAC=       F     FRIEND=        
 NPRINT=       7     IREST =       0     GEOM  =INPUT   
 NORMF =       0     NORMP =       0     ITOL  =      20     ICUT  =       9
 INTTYP=BEST         GRDTYP=BEST         QMTTOL= 1.0E-06

     $SYSTEM OPTIONS
     ---------------
  REPLICATED MEMORY=     1000000 WORDS (ON EVERY NODE).
 DISTRIBUTED MEMDDI=           0 MILLION WORDS IN AGGREGATE,
 MEMDDI DISTRIBUTED OVER   1 PROCESSORS IS           0 WORDS/PROCESSOR.
 TOTAL MEMORY REQUESTED ON EACH PROCESSOR=     1000000 WORDS.
 TIMLIM=      525600.00 MINUTES, OR     365.0 DAYS.
 PARALL= F  BALTYP=  DLB     KDIAG=    0  COREFL= F
 MXSEQ2=     300 MXSEQ3=     150

          ----------------
          PROPERTIES INPUT
          ----------------

     MOMENTS            FIELD           POTENTIAL          DENSITY
 IEMOM =       1   IEFLD =       0   IEPOT =       0   IEDEN =       0
 WHERE =COMASS     WHERE =NUCLEI     WHERE =NUCLEI     WHERE =NUCLEI  
 OUTPUT=BOTH       OUTPUT=BOTH       OUTPUT=BOTH       OUTPUT=BOTH    
 IEMINT=       0   IEFINT=       0                     IEDINT=       0
                                                       MORB  =       0
          EXTRAPOLATION IN EFFECT
          DIIS IN EFFECT
 ORBITAL PRINTING OPTION: NPREO=     1    21     2     1

     -------------------------------
     INTEGRAL TRANSFORMATION OPTIONS
     -------------------------------
     NWORD  =            0
     CUTOFF = 1.0E-09     MPTRAN =       0
     DIRTRF =       F     AOINTS =DUP     

          ----------------------
          INTEGRAL INPUT OPTIONS
          ----------------------
 NOPK  =       1 NORDER=       0 SCHWRZ=       F

   --- ENCODED Z MATRIX ---
 COORD  TYPE   I   J   K   L   M   N
    1      1    4   1
    2      1    3   1
    3      2    3   1   4
    4      1    2   1
    5      2    2   1   4
    6      3    2   1   4   3

 THE DETERMINANT OF THE G MATRIX IS 10**(    -1)

     ------------------------------------------
     THE POINT GROUP IS CNV, NAXIS= 3, ORDER= 6
     ------------------------------------------

     DIMENSIONS OF THE SYMMETRY SUBSPACES ARE
 A1  =    9     A2  =    0     E   =    6

 ..... DONE SETTING UP THE RUN .....
 STEP CPU TIME =     0.01 TOTAL CPU TIME =        0.0 (    0.0 MIN)
 TOTAL WALL CLOCK TIME=        0.0 SECONDS, CPU UTILIZATION IS 100.00%


          -----------------------------
          STATIONARY POINT LOCATION RUN
          -----------------------------

 OBTAINING INITIAL HESSIAN, HESS=GUESS   
 CARTESIAN COORDINATE OPTIMIZATION USING BADGER'S RULE FORCE CONSTANT GUESS

          PARAMETERS CONTROLLING GEOMETRY SEARCH ARE
          METHOD =QA                  UPHESS =BFGS    
          NNEG   =         0          NFRZ   =         0
          NSTEP  =        50          IFOLOW =         1
          HESS   =GUESS               RESTAR =         F
          IHREP  =         0          HSSEND =         F
          NPRT   =         0          NPUN   =         0
          OPTTOL = 1.000E-04          RMIN   = 1.500E-03
          RMAX   = 1.000E-01          RLIM   = 7.000E-02
          DXMAX  = 3.000E-01          PURIFY =         F
          MOVIE  =         F          TRUPD  =         T
          TRMAX  = 5.000E-01          TRMIN  = 5.000E-02
          ITBMAT =         5          STPT   =         F
          STSTEP = 1.000E-02          PROJCT=          T

 BEGINNING GEOMETRY SEARCH POINT NSERCH=   0 ...

 COORDINATES OF SYMMETRY UNIQUE ATOMS (ANGS)
   ATOM   CHARGE       X              Y              Z
 ------------------------------------------------------------
 N           7.0  -0.0000000385   0.0000000000   0.0651106473
 H           1.0  -1.0370897215   0.0000000000  -0.3015567626
 COORDINATES OF ALL ATOMS ARE (ANGS)
   ATOM   CHARGE       X              Y              Z
 ------------------------------------------------------------
 N           7.0  -0.0000000385   0.0000000000   0.0651106473
 H           1.0   0.5185448607  -0.8981460448  -0.3015567626
 H           1.0   0.5185448607   0.8981460448  -0.3015567626
 H           1.0  -1.0370897215   0.0000000000  -0.3015567626

 THE CURRENT FULLY SUBSTITUTED Z-MATRIX IS
 N   
 H      1   1.1000000
 H      1   1.1000001  2   109.4711816
 H      1   1.1000001  2   109.4711816  3  -119.9998994  0

          ********************
          1 ELECTRON INTEGRALS
          ********************
 ...... END OF ONE-ELECTRON INTEGRALS ......
 STEP CPU TIME =     0.00 TOTAL CPU TIME =        0.0 (    0.0 MIN)
 TOTAL WALL CLOCK TIME=        0.0 SECONDS, CPU UTILIZATION IS  50.00%

          -------------
          GUESS OPTIONS
          -------------
          GUESS =HUCKEL            NORB  =       0          NORDER=       0
          MIX   =       F          PRTMO =       F          PUNMO =       F
          TOLZ  = 1.0E-08          TOLE  = 1.0E-05
          SYMDEN=       F          PURIFY=       F

 INITIAL GUESS ORBITALS GENERATED BY HUCKEL   ROUTINE.
 HUCKEL GUESS REQUIRES      6301 WORDS.

 SYMMETRIES FOR INITIAL GUESS ORBITALS FOLLOW.   BOTH SET(S).
     5 ORBITALS ARE OCCUPIED (    1 CORE ORBITALS).
     2=?A1      3=?E       4=?E       5=?A1      6=E        7=?E       8=?A1 
     9=?A1     10=?A1     11=?A1     12=?A1     13=?A1     14=?E      15=?E  
 ...... END OF INITIAL ORBITAL SELECTION ......
 STEP CPU TIME =     0.00 TOTAL CPU TIME =        0.0 (    0.0 MIN)
 TOTAL WALL CLOCK TIME=        0.0 SECONDS, CPU UTILIZATION IS  50.00%

                    ----------------------
                    AO INTEGRAL TECHNOLOGY
                    ----------------------
     S,P,L SHELL ROTATED AXIS INTEGRALS, REPROGRAMMED BY
        KAZUYA ISHIMURA (IMS) AND JOSE SIERRA (SYNSTAR).
     S,P,D,L SHELL ROTATED AXIS INTEGRALS PROGRAMMED BY
        KAZUYA ISHIMURA (INSTITUTE FOR MOLECULAR SCIENCE).
     S,P,D,F,G SHELL TO TOTAL QUARTET ANGULAR MOMENTUM SUM 5,
        ERIC PROGRAM BY GRAHAM FLETCHER (ELORET AND NASA ADVANCED
        SUPERCOMPUTING DIVISION, AMES RESEARCH CENTER).
     S,P,D,F,G,L SHELL GENERAL RYS QUADRATURE PROGRAMMED BY
        MICHEL DUPUIS (PACIFIC NORTHWEST NATIONAL LABORATORY).

          --------------------
          2 ELECTRON INTEGRALS
          --------------------

 THE -PK- OPTION IS OFF, THE INTEGRALS ARE NOT IN SUPERMATRIX FORM.
 STORING   15000 INTEGRALS/RECORD ON DISK, USING 12 BYTES/INTEGRAL.
 TWO ELECTRON INTEGRAL EVALUATION REQUIRES   90451 WORDS OF MEMORY.
 II,JST,KST,LST =  1  1  1  1 NREC =         1 INTLOC =    1
 II,JST,KST,LST =  2  1  1  1 NREC =         1 INTLOC =    2
 II,JST,KST,LST =  3  1  1  1 NREC =         1 INTLOC =   34
 II,JST,KST,LST =  4  1  1  1 NREC =         1 INTLOC =  214
 II,JST,KST,LST =  5  1  1  1 NREC =         1 INTLOC = 1189
 II,JST,KST,LST =  6  1  1  1 NREC =         1 INTLOC = 1189
 II,JST,KST,LST =  7  1  1  1 NREC =         1 INTLOC = 1189
 II,JST,KST,LST =  8  1  1  1 NREC =         1 INTLOC = 1189
 II,JST,KST,LST =  9  1  1  1 NREC =         1 INTLOC = 1189
 II,JST,KST,LST = 10  1  1  1 NREC =         1 INTLOC = 2682
 TOTAL NUMBER OF NONZERO TWO-ELECTRON INTEGRALS =                5020
          1 INTEGRAL RECORDS WERE STORED ON DISK FILE  8.
  ...... END OF TWO-ELECTRON INTEGRALS .....
 STEP CPU TIME =     0.02 TOTAL CPU TIME =        0.0 (    0.0 MIN)
 TOTAL WALL CLOCK TIME=        0.0 SECONDS, CPU UTILIZATION IS  75.00%

          --------------------------
                 RHF SCF CALCULATION
          --------------------------

     NUCLEAR ENERGY =        10.9862570551
     MAXIT =   30     NPUNCH=    2
     EXTRAP=T  DAMP=F  SHIFT=F  RSTRCT=F  DIIS=T  DEM=F  SOSCF=F
     DENSITY MATRIX CONV=  1.00E-05
     MEMORY REQUIRED FOR RHF ITERS=     34046 WORDS.

 ITER EX DEM     TOTAL ENERGY        E CHANGE  DENSITY CHANGE    DIIS ERROR
   1  0  0      -55.9884018304   -55.9884018304   0.215866627   0.592793941
          * * *   INITIATING DIIS PROCEDURE   * * *
   2  1  0      -56.1494057872    -0.1610039568   0.080850228   0.062882886
   3  2  0      -56.1597210372    -0.0103152501   0.045331444   0.023316842
   4  3  0      -56.1613882181    -0.0016671809   0.008202642   0.005871405
   5  4  0      -56.1615017916    -0.0001135735   0.004479082   0.002677781
   6  5  0      -56.1615263412    -0.0000245496   0.002720067   0.000831078
   7  6  0      -56.1615303890    -0.0000040478   0.000211675   0.000063176
   8  7  0      -56.1615304121    -0.0000000231   0.000024093   0.000015852
   9  8  0      -56.1615304126    -0.0000000005   0.000004714   0.000002513
  10  9  0      -56.1615304126    -0.0000000000   0.000000420   0.000000456

          -----------------
          DENSITY CONVERGED
          -----------------
     TIME TO FORM FOCK OPERATORS=       0.0 SECONDS (       0.0 SEC/ITER)
     TIME TO SOLVE SCF EQUATIONS=       0.0 SECONDS (       0.0 SEC/ITER)

 FINAL RHF ENERGY IS      -56.1615304126 AFTER  10 ITERATIONS

          ------------
          EIGENVECTORS
          ------------

                      1          2          3          4          5
                  -15.5643    -1.0890    -0.5907    -0.5907    -0.4093
                     ?A1        ?A1        ?E         E          ?A1 
    1  N  1  S    0.995114  -0.198553   0.000000   0.000000  -0.059014
    2  N  1  S    0.024131   0.411397   0.000000   0.000000   0.140917
    3  N  1  X   -0.000000  -0.000000   0.454104   0.000000   0.000000
    4  N  1  Y   -0.000000  -0.000000   0.000000   0.454104   0.000000
    5  N  1  Z   -0.001454  -0.066556   0.000000   0.000000   0.556911
    6  N  1  S   -0.001439   0.467795   0.000000   0.000000   0.260152
    7  N  1  X   -0.000000  -0.000000   0.291004   0.000000   0.000000
    8  N  1  Y   -0.000000  -0.000000   0.000000   0.291004   0.000000
    9  N  1  Z    0.000842  -0.046549   0.000000   0.000000   0.492214
   10  N  1 XX   -0.003394   0.014500  -0.022861   0.000000   0.004672
   11  N  1 YY   -0.003394   0.014500   0.022861   0.000000   0.004672
   12  N  1 ZZ   -0.003122  -0.003749   0.000000   0.000000  -0.026577
   13  N  1 XY   -0.000000  -0.000000   0.000000   0.026398   0.000000
   14  N  1 XZ   -0.000000  -0.000000  -0.035187   0.000000   0.000000
   15  N  1 YZ   -0.000000  -0.000000   0.000000  -0.035187   0.000000
   16  H  2  S    0.000240   0.122996   0.134002  -0.232098  -0.066246
   17  H  2  S    0.000486   0.014976   0.092969  -0.161027  -0.065197
   18  H  3  S    0.000240   0.122996   0.134002   0.232098  -0.066246
   19  H  3  S    0.000486   0.014976   0.092969   0.161027  -0.065197
   20  H  4  S    0.000240   0.122996  -0.268004   0.000000  -0.066246
   21  H  4  S    0.000486   0.014976  -0.185937   0.000000  -0.065197

                      6          7          8          9         10
                    0.1997     0.2999     0.2999     0.9282     0.9282
                     ?A1        ?E         E          ?E         E   
    1  N  1  S   -0.127077  -0.000000   0.000000  -0.000000  -0.000000
    2  N  1  S    0.128884  -0.000000   0.000000  -0.000000  -0.000000
    3  N  1  X    0.000000   0.354301   0.000000  -0.311922  -0.000000
    4  N  1  Y    0.000000  -0.000000  -0.354301  -0.000000  -0.311922
    5  N  1  Z   -0.163127  -0.000000   0.000000  -0.000000  -0.000000
    6  N  1  S    1.705423  -0.000000   0.000000  -0.000000  -0.000000
    7  N  1  X    0.000000   1.052120   0.000000   0.956720  -0.000000
    8  N  1  Y    0.000000  -0.000000  -1.052120  -0.000000   0.956720
    9  N  1  Z   -0.445713  -0.000000   0.000000  -0.000000  -0.000000
   10  N  1 XX   -0.036089   0.002764   0.000000   0.150301  -0.000000
   11  N  1 YY   -0.036089  -0.002764   0.000000  -0.150301  -0.000000
   12  N  1 ZZ   -0.032635  -0.000000   0.000000  -0.000000  -0.000000
   13  N  1 XY    0.000000  -0.000000   0.003192  -0.000000  -0.173553
   14  N  1 XZ    0.000000  -0.013937   0.000000   0.099011  -0.000000
   15  N  1 YZ    0.000000  -0.000000   0.013937  -0.000000   0.099011
   16  H  2  S   -0.052878  -0.033637  -0.058261  -0.418389   0.724672
   17  H  2  S   -0.887221  -0.772223  -1.337529   0.161913  -0.280441
   18  H  3  S   -0.052878  -0.033637   0.058261  -0.418389  -0.724672
   19  H  3  S   -0.887221  -0.772223   1.337529   0.161913   0.280441
   20  H  4  S   -0.052878   0.067274   0.000000   0.836779  -0.000000
   21  H  4  S   -0.887221   1.544446   0.000000  -0.323826  -0.000000

                     11         12         13         14         15
                    0.9709     1.0744     1.1599     1.1599     1.3247
                     ?A1        ?A1        ?E         E          ?A1 
    1  N  1  S    0.010954   0.063883  -0.000000  -0.000000  -0.078839
    2  N  1  S   -0.249319  -0.490709  -0.000000  -0.000000  -1.542750
    3  N  1  X    0.000000  -0.000000  -1.031330  -0.000000   0.000000
    4  N  1  Y    0.000000  -0.000000  -0.000000  -1.031330   0.000000
    5  N  1  Z   -0.973001   0.244674  -0.000000  -0.000000   0.211181
    6  N  1  S    0.266970   0.730234  -0.000000  -0.000000   3.760111
    7  N  1  X    0.000000  -0.000000   1.394495  -0.000000   0.000000
    8  N  1  Y    0.000000  -0.000000  -0.000000   1.394495   0.000000
    9  N  1  Z    1.048493  -0.030816  -0.000000  -0.000000  -0.685552
   10  N  1 XX   -0.056271   0.031602  -0.067233  -0.000000  -0.413999
   11  N  1 YY   -0.056271   0.031602   0.067233  -0.000000  -0.413999
   12  N  1 ZZ   -0.073242  -0.209984  -0.000000  -0.000000  -0.143891
   13  N  1 XY    0.000000  -0.000000  -0.000000   0.077634   0.000000
   14  N  1 XZ    0.000000  -0.000000  -0.045756  -0.000000   0.000000
   15  N  1 YZ    0.000000  -0.000000  -0.000000  -0.045756   0.000000
   16  H  2  S    0.073767   0.699384   0.233275  -0.404045  -0.257995
   17  H  2  S    0.017829  -0.547426  -0.616826   1.068375  -0.700698
   18  H  3  S    0.073767   0.699384   0.233275   0.404045  -0.257995
   19  H  3  S    0.017829  -0.547426  -0.616826  -1.068375  -0.700698
   20  H  4  S    0.073767   0.699384  -0.466550  -0.000000  -0.257995
   21  H  4  S    0.017829  -0.547426   1.233653  -0.000000  -0.700698

                     16         17         18         19         20
                    1.9895     1.9895     2.2575     2.6222     2.6222
                     ?E         E          ?A1        ?E         E   
    1  N  1  S    0.000000   0.000000  -0.043258  -0.000000  -0.000000
    2  N  1  S    0.000000   0.000000  -0.412024  -0.000000  -0.000000
    3  N  1  X    0.012163   0.000000   0.000000  -0.018404  -0.000000
    4  N  1  Y    0.000000   0.012163   0.000000  -0.000000  -0.018404
    5  N  1  Z    0.000000   0.000000   0.010768  -0.000000  -0.000000
    6  N  1  S    0.000000   0.000000   1.156852  -0.000000  -0.000000
    7  N  1  X    0.036092   0.000000   0.000000   0.598278  -0.000000
    8  N  1  Y    0.000000   0.036092   0.000000  -0.000000   0.598278
    9  N  1  Z    0.000000   0.000000  -0.319676  -0.000000  -0.000000
   10  N  1 XX   -0.510569   0.000000   0.448609  -0.794005  -0.000000
   11  N  1 YY    0.510569   0.000000   0.448609   0.794005  -0.000000
   12  N  1 ZZ    0.000000   0.000000  -1.072136  -0.000000  -0.000000
   13  N  1 XY    0.000000   0.589554   0.000000  -0.000000   0.916838
   14  N  1 XZ    0.807210   0.000000   0.000000  -0.669025  -0.000000
   15  N  1 YZ    0.000000   0.807210   0.000000  -0.000000  -0.669025
   16  H  2  S   -0.015226   0.026373  -0.396800  -0.398428   0.690097
   17  H  2  S   -0.000801   0.001388  -0.121493   0.024712  -0.042802
   18  H  3  S   -0.015226  -0.026373  -0.396800  -0.398428  -0.690097
   19  H  3  S   -0.000801  -0.001388  -0.121493   0.024712   0.042802
   20  H  4  S    0.030453   0.000000  -0.396800   0.796856  -0.000000
   21  H  4  S    0.001602   0.000000  -0.121493  -0.049424  -0.000000

                     21
                    4.0345
                     ?A1 
    1  N  1  S   -0.455627
    2  N  1  S    1.238185
    3  N  1  X   -0.000000
    4  N  1  Y   -0.000000
    5  N  1  Z    0.072148
    6  N  1  S    2.890181
    7  N  1  X   -0.000000
    8  N  1  Y   -0.000000
    9  N  1  Z   -0.257513
   10  N  1 XX   -1.462229
   11  N  1 YY   -1.462229
   12  N  1 ZZ   -1.505712
   13  N  1 XY   -0.000000
   14  N  1 XZ   -0.000000
   15  N  1 YZ   -0.000000
   16  H  2  S    0.108611
   17  H  2  S   -0.484921
   18  H  3  S    0.108611
   19  H  3  S   -0.484921
   20  H  4  S    0.108611
   21  H  4  S   -0.484921
 ...... END OF RHF CALCULATION ......
 STEP CPU TIME =     0.02 TOTAL CPU TIME =        0.0 (    0.0 MIN)
 TOTAL WALL CLOCK TIME=        0.1 SECONDS, CPU UTILIZATION IS 100.00%

     ----------------------------------------------------------------
     PROPERTY VALUES FOR THE RHF   SELF-CONSISTENT FIELD WAVEFUNCTION
     ----------------------------------------------------------------

          -----------------
          ENERGY COMPONENTS
          -----------------

         WAVEFUNCTION NORMALIZATION =       0.9999999959

                ONE ELECTRON ENERGY =     -97.8074082115
                TWO ELECTRON ENERGY =      30.6596207439
           NUCLEAR REPULSION ENERGY =      10.9862570551
                                      ------------------
                       TOTAL ENERGY =     -56.1615304126

 ELECTRON-ELECTRON POTENTIAL ENERGY =      30.6596207439
  NUCLEUS-ELECTRON POTENTIAL ENERGY =    -153.4493210549
   NUCLEUS-NUCLEUS POTENTIAL ENERGY =      10.9862570551
                                      ------------------
             TOTAL POTENTIAL ENERGY =    -111.8034432559
               TOTAL KINETIC ENERGY =      55.6419128433
                 VIRIAL RATIO (V/T) =       2.0093386000

          ---------------------------------------
          MULLIKEN AND LOWDIN POPULATION ANALYSES
          ---------------------------------------

     ATOMIC MULLIKEN POPULATION IN EACH MOLECULAR ORBITAL

                      1          2          3          4          5

                  2.000000   2.000000   2.000000   2.000000   2.000000

    1             1.999737   1.637990   1.216098   1.216098   1.906609
    2             0.000088   0.120670   0.130650   0.391951   0.031130
    3             0.000088   0.120670   0.130650   0.391951   0.031130
    4             0.000088   0.120670   0.522601   0.000000   0.031130

               ----- POPULATIONS IN EACH AO -----
                             MULLIKEN      LOWDIN
              1  N  1  S      1.99560     1.97882
              2  N  1  S      0.75932     0.52588
              3  N  1  X      0.69007     0.63395
              4  N  1  Y      0.69007     0.63413
              5  N  1  Z      0.95619     0.93498
              6  N  1  S      0.94944     0.45993
              7  N  1  X      0.50977     0.58252
              8  N  1  Y      0.50977     0.58335
              9  N  1  Z      0.85420     0.87865
             10  N  1 XX      0.02493     0.19909
             11  N  1 YY      0.02493     0.19909
             12  N  1 ZZ     -0.01251     0.15563
             13  N  1 XY      0.00777     0.01137
             14  N  1 XZ      0.00849     0.00971
             15  N  1 YZ      0.00849     0.00975
             16  H  2  S      0.46327     0.43116
             17  H  2  S      0.21122     0.30278
             18  H  3  S      0.46327     0.43116
             19  H  3  S      0.21122     0.30278
             20  H  4  S      0.46327     0.43241
             21  H  4  S      0.21122     0.30288

          ----- MULLIKEN ATOMIC OVERLAP POPULATIONS -----
          (OFF-DIAGONAL ELEMENTS NEED TO BE MULTIPLIED BY 2)

             1           2           3           4

    1    7.0482934
    2    0.3094125   0.4082201
    3    0.3094125  -0.0215715   0.4082201
    4    0.3094126  -0.0215715  -0.0215715   0.4082201

          TOTAL MULLIKEN AND LOWDIN ATOMIC POPULATIONS
       ATOM         MULL.POP.    CHARGE          LOW.POP.     CHARGE
    1 N             7.976531   -0.976531         7.796839   -0.796839
    2 H             0.674490    0.325510         0.733934    0.266066
    3 H             0.674490    0.325510         0.733934    0.266066
    4 H             0.674490    0.325510         0.735294    0.264706

          -------------------------------
          BOND ORDER AND VALENCE ANALYSIS     BOND ORDER THRESHOLD=0.050
          -------------------------------

                   BOND                       BOND                       BOND
  ATOM PAIR DIST  ORDER      ATOM PAIR DIST  ORDER      ATOM PAIR DIST  ORDER
    1   2  1.100  0.861        1   3  1.100  0.861        1   4  1.100  0.861

                       TOTAL       BONDED        FREE
      ATOM            VALENCE     VALENCE     VALENCE
    1 N                 2.582       2.582       0.000
    2 H                 0.861       0.861       0.000
    3 H                 0.861       0.861       0.000
    4 H                 0.861       0.861      -0.000

          ---------------------
          ELECTROSTATIC MOMENTS
          ---------------------

 POINT   1           X           Y           Z (BOHR)    CHARGE
                -0.000000   -0.000000   -0.000000        0.00 (A.U.)
         DX          DY          DZ         /D/  (DEBYE)
     0.000000   -0.000000   -1.786625    1.786625
 ...... END OF PROPERTY EVALUATION ......
 STEP CPU TIME =     0.00 TOTAL CPU TIME =        0.0 (    0.0 MIN)
 TOTAL WALL CLOCK TIME=        0.1 SECONDS, CPU UTILIZATION IS 100.00%

 BEGINNING ONE ELECTRON GRADIENT...
 ..... END OF 1-ELECTRON GRADIENT ......
 STEP CPU TIME =     0.00 TOTAL CPU TIME =        0.0 (    0.0 MIN)
 TOTAL WALL CLOCK TIME=        0.1 SECONDS, CPU UTILIZATION IS 100.00%

          ----------------------
          GRADIENT OF THE ENERGY
          ----------------------

 THE MINIMUM MEMORY REQUIRED FOR THIS RUN IS      72392 WORDS.
 USING     996489 WORDS FOR 2E- DERIVATIVE INTEGRAL CONTRIBUTIONS.
 THE COARSE/FINE SCHWARZ SCREENINGS SKIPPED            0/           0 BLOCKS.
 THE NUMBER OF GRADIENT INTEGRAL BLOCKS COMPUTED WAS       360
 ...... END OF 2-ELECTRON GRADIENT ......
 STEP CPU TIME =     0.00 TOTAL CPU TIME =        0.0 (    0.0 MIN)
 TOTAL WALL CLOCK TIME=        0.1 SECONDS, CPU UTILIZATION IS  83.33%

          NSERCH=  0     ENERGY=     -56.1615304

                                 -----------------------
                                 GRADIENT (HARTREE/BOHR)
                                 -----------------------
        ATOM     ZNUC       DE/DX         DE/DY         DE/DZ
 --------------------------------------------------------------
   1  N            7.0     0.0000000     0.0000000     0.0483207
   2  H            1.0     0.0351042    -0.0608022    -0.0161069
   3  H            1.0     0.0351042     0.0608022    -0.0161069
   4  H            1.0    -0.0702083     0.0000000    -0.0161069

          MAXIMUM GRADIENT =  0.0702083    RMS GRADIENT = 0.0386230
          FORCE CONSTANT MATRIX NOT UPDATED --- TAKING FIRST STEP
          MIN SEARCH, CORRECT HESSIAN, TRYING PURE NR STEP
               NR STEP HAS LENGTH         =   0.430840
          TRIM/QA LAMBDA FOR NON-TS MODES =  -0.03663944
          TRIM/QA STEP HAS LENGTH         =   0.300000
          RADIUS OF STEP TAKEN=   0.30000  CURRENT TRUST RADIUS=   0.30000

 BEGINNING GEOMETRY SEARCH POINT NSERCH=   1 ...

 COORDINATES OF SYMMETRY UNIQUE ATOMS (ANGS)
   ATOM   CHARGE       X              Y              Z
 ------------------------------------------------------------
 N           7.0  -0.0000000385  -0.0000000000   0.0654069680
 H           1.0  -0.9454337461   0.0000000000  -0.3016555362
 COORDINATES OF ALL ATOMS ARE (ANGS)
   ATOM   CHARGE       X              Y              Z
 ------------------------------------------------------------
 N           7.0  -0.0000000385  -0.0000000000   0.0654069680
 H           1.0   0.4727168731  -0.8187696418  -0.3016555362
 H           1.0   0.4727168731   0.8187696418  -0.3016555362
 H           1.0  -0.9454337461   0.0000000000  -0.3016555362

 THE CURRENT FULLY SUBSTITUTED Z-MATRIX IS
 N   
 H      1   1.0141892
 H      1   1.0141893  2   107.6687405
 H      1   1.0141893  2   107.6687405  3  -115.8347741  0

          INTERNUCLEAR DISTANCES (ANGS.)
          ------------------------------

                1 N          2 H          3 H          4 H     

   1 N       0.0000000    1.0141893 *  1.0141893 *  1.0141892 *
   2 H       1.0141893 *  0.0000000    1.6375393 *  1.6375393 *
   3 H       1.0141893 *  1.6375393 *  0.0000000    1.6375393 *
   4 H       1.0141892 *  1.6375393 *  1.6375393 *  0.0000000  

  * ... LESS THAN  3.000

 ...... END OF ONE-ELECTRON INTEGRALS ......
 STEP CPU TIME =     0.00 TOTAL CPU TIME =        0.0 (    0.0 MIN)
 TOTAL WALL CLOCK TIME=        0.1 SECONDS, CPU UTILIZATION IS  83.33%
 TOTAL NUMBER OF NONZERO TWO-ELECTRON INTEGRALS =                5020
          1 INTEGRAL RECORDS WERE STORED ON DISK FILE  8.
  ...... END OF TWO-ELECTRON INTEGRALS .....
 STEP CPU TIME =     0.01 TOTAL CPU TIME =        0.1 (    0.0 MIN)
 TOTAL WALL CLOCK TIME=        0.1 SECONDS, CPU UTILIZATION IS 100.00%

          --------------------------
                 RHF SCF CALCULATION
          --------------------------
     DENSITY MATRIX CONV=  2.00E-04

 ITER EX DEM     TOTAL ENERGY        E CHANGE  DENSITY CHANGE    DIIS ERROR
          * * *   INITIATING DIIS PROCEDURE   * * *
   1  0  0      -56.1786267709   -56.1786267709   0.045194965   0.061106011
   2  1  0      -56.1831514213    -0.0045246504   0.020497171   0.029776042
   3  2  0      -56.1838917140    -0.0007402927   0.003771028   0.005831970
   4  3  0      -56.1839424007    -0.0000506867   0.001994838   0.001467147
   5  4  0      -56.1839454706    -0.0000030699   0.000742578   0.000241008
   6  5  0      -56.1839457223    -0.0000002517   0.000171632   0.000048471
   7  6  0      -56.1839457345    -0.0000000122   0.000028195   0.000009279
   8  7  0      -56.1839457349    -0.0000000005   0.000002690   0.000001448

          -----------------
          DENSITY CONVERGED
          -----------------
     TIME TO FORM FOCK OPERATORS=       0.0 SECONDS (       0.0 SEC/ITER)
     TIME TO SOLVE SCF EQUATIONS=       0.0 SECONDS (       0.0 SEC/ITER)

 FINAL RHF ENERGY IS      -56.1839457349 AFTER   8 ITERATIONS
 ...... END OF RHF CALCULATION ......
 STEP CPU TIME =     0.00 TOTAL CPU TIME =        0.1 (    0.0 MIN)
 TOTAL WALL CLOCK TIME=        0.1 SECONDS, CPU UTILIZATION IS 100.00%
 ..... END OF 1-ELECTRON GRADIENT ......
 STEP CPU TIME =     0.00 TOTAL CPU TIME =        0.1 (    0.0 MIN)
 TOTAL WALL CLOCK TIME=        0.1 SECONDS, CPU UTILIZATION IS  85.71%
 ...... END OF 2-ELECTRON GRADIENT ......
 STEP CPU TIME =     0.00 TOTAL CPU TIME =        0.1 (    0.0 MIN)
 TOTAL WALL CLOCK TIME=        0.1 SECONDS, CPU UTILIZATION IS  85.71%

          NSERCH=  1     ENERGY=     -56.1839457

                                 -----------------------
                                 GRADIENT (HARTREE/BOHR)
                                 -----------------------
        ATOM     ZNUC       DE/DX         DE/DY         DE/DZ
 --------------------------------------------------------------
   1  N            7.0     0.0000000     0.0000000     0.0082200
   2  H            1.0     0.0055123    -0.0095476    -0.0027400
   3  H            1.0     0.0055123     0.0095476    -0.0027400
   4  H            1.0    -0.0110246     0.0000000    -0.0027400

          MAXIMUM GRADIENT =  0.0110246    RMS GRADIENT = 0.0061557
          HESSIAN UPDATED USING THE BFGS FORMULA
             ACTUAL ENERGY CHANGE WAS  -0.0224153223
          PREDICTED ENERGY CHANGE WAS  -0.0198713523 RATIO=  1.128
          MIN SEARCH, CORRECT HESSIAN, TRYING PURE NR STEP
               NR STEP HAS LENGTH         =   0.050917
          RADIUS OF STEP TAKEN=   0.05092  CURRENT TRUST RADIUS=   0.42426

 BEGINNING GEOMETRY SEARCH POINT NSERCH=   2 ...

 COORDINATES OF SYMMETRY UNIQUE ATOMS (ANGS)
   ATOM   CHARGE       X              Y              Z
 ------------------------------------------------------------
 N           7.0  -0.0000000385  -0.0000000000   0.0549325580
 H           1.0  -0.9315328802   0.0000000000  -0.2981640662
 COORDINATES OF ALL ATOMS ARE (ANGS)
   ATOM   CHARGE       X              Y              Z
 ------------------------------------------------------------
 N           7.0  -0.0000000385  -0.0000000000   0.0549325580
 H           1.0   0.4657664401  -0.8067311387  -0.2981640662
 H           1.0   0.4657664401   0.8067311387  -0.2981640662
 H           1.0  -0.9315328802   0.0000000000  -0.2981640662

 THE CURRENT FULLY SUBSTITUTED Z-MATRIX IS
 N   
 H      1   0.9962081
 H      1   0.9962082  2   108.1531368
 H      1   0.9962082  2   108.1531368  3  -116.9077107  0

          INTERNUCLEAR DISTANCES (ANGS.)
          ------------------------------

                1 N          2 H          3 H          4 H     

   1 N       0.0000000    0.9962082 *  0.9962082 *  0.9962081 *
   2 H       0.9962082 *  0.0000000    1.6134623 *  1.6134623 *
   3 H       0.9962082 *  1.6134623 *  0.0000000    1.6134623 *
   4 H       0.9962081 *  1.6134623 *  1.6134623 *  0.0000000  

  * ... LESS THAN  3.000

 ...... END OF ONE-ELECTRON INTEGRALS ......
 STEP CPU TIME =     0.00 TOTAL CPU TIME =        0.1 (    0.0 MIN)
 TOTAL WALL CLOCK TIME=        0.1 SECONDS, CPU UTILIZATION IS  85.71%
 TOTAL NUMBER OF NONZERO TWO-ELECTRON INTEGRALS =                5020
          1 INTEGRAL RECORDS WERE STORED ON DISK FILE  8.
  ...... END OF TWO-ELECTRON INTEGRALS .....
 STEP CPU TIME =     0.01 TOTAL CPU TIME =        0.1 (    0.0 MIN)
 TOTAL WALL CLOCK TIME=        0.1 SECONDS, CPU UTILIZATION IS  87.50%

          --------------------------
                 RHF SCF CALCULATION
          --------------------------
     DENSITY MATRIX CONV=  5.00E-05

 ITER EX DEM     TOTAL ENERGY        E CHANGE  DENSITY CHANGE    DIIS ERROR
          * * *   INITIATING DIIS PROCEDURE   * * *
   1  0  0      -56.1839031893   -56.1839031893   0.015202331   0.014730982
   2  1  0      -56.1841669058    -0.0002637165   0.005050716   0.007504195
   3  2  0      -56.1842111373    -0.0000442315   0.002006953   0.001349869
   4  3  0      -56.1842159958    -0.0000048585   0.000811074   0.000284551
   5  4  0      -56.1842163377    -0.0000003419   0.000242746   0.000081028
   6  5  0      -56.1842163602    -0.0000000225   0.000059400   0.000015521
   7  6  0      -56.1842163616    -0.0000000014   0.000006152   0.000002842
   8  7  0      -56.1842163616    -0.0000000000   0.000000427   0.000000582

          -----------------
          DENSITY CONVERGED
          -----------------
     TIME TO FORM FOCK OPERATORS=       0.0 SECONDS (       0.0 SEC/ITER)
     TIME TO SOLVE SCF EQUATIONS=       0.0 SECONDS (       0.0 SEC/ITER)

 FINAL RHF ENERGY IS      -56.1842163616 AFTER   8 ITERATIONS
 ...... END OF RHF CALCULATION ......
 STEP CPU TIME =     0.00 TOTAL CPU TIME =        0.1 (    0.0 MIN)
 TOTAL WALL CLOCK TIME=        0.1 SECONDS, CPU UTILIZATION IS  87.50%
 ..... END OF 1-ELECTRON GRADIENT ......
 STEP CPU TIME =     0.01 TOTAL CPU TIME =        0.1 (    0.0 MIN)
 TOTAL WALL CLOCK TIME=        0.1 SECONDS, CPU UTILIZATION IS 100.00%
 ...... END OF 2-ELECTRON GRADIENT ......
 STEP CPU TIME =     0.00 TOTAL CPU TIME =        0.1 (    0.0 MIN)
 TOTAL WALL CLOCK TIME=        0.1 SECONDS, CPU UTILIZATION IS  88.89%

          NSERCH=  2     ENERGY=     -56.1842164

                                 -----------------------
                                 GRADIENT (HARTREE/BOHR)
                                 -----------------------
        ATOM     ZNUC       DE/DX         DE/DY         DE/DZ
 --------------------------------------------------------------
   1  N            7.0     0.0000000     0.0000000    -0.0084084
   2  H            1.0    -0.0022336     0.0038686     0.0028028
   3  H            1.0    -0.0022336    -0.0038686     0.0028028
   4  H            1.0     0.0044671     0.0000000     0.0028028

          MAXIMUM GRADIENT =  0.0084084    RMS GRADIENT = 0.0035839
          HESSIAN UPDATED USING THE BFGS FORMULA
             ACTUAL ENERGY CHANGE WAS  -0.0002706267
          PREDICTED ENERGY CHANGE WAS  -0.0005428736 RATIO=  0.499
          MIN SEARCH, CORRECT HESSIAN, TRYING PURE NR STEP
               NR STEP HAS LENGTH         =   0.111563
          TRIM/QA LAMBDA FOR NON-TS MODES =  -0.03891800
          TRIM/QA STEP HAS LENGTH         =   0.050917
          RADIUS OF STEP TAKEN=   0.05092  CURRENT TRUST RADIUS=   0.05092

 BEGINNING GEOMETRY SEARCH POINT NSERCH=   3 ...

 COORDINATES OF SYMMETRY UNIQUE ATOMS (ANGS)
   ATOM   CHARGE       X              Y              Z
 ------------------------------------------------------------
 N           7.0  -0.0000000385  -0.0000000000   0.0773323989
 H           1.0  -0.9271746410   0.0000000000  -0.3056306798
 COORDINATES OF ALL ATOMS ARE (ANGS)
   ATOM   CHARGE       X              Y              Z
 ------------------------------------------------------------
 N           7.0  -0.0000000385  -0.0000000000   0.0773323989
 H           1.0   0.4635873205  -0.8029567928  -0.3056306798
 H           1.0   0.4635873205   0.8029567928  -0.3056306798
 H           1.0  -0.9271746410   0.0000000000  -0.3056306798

 THE CURRENT FULLY SUBSTITUTED Z-MATRIX IS
 N   
 H      1   1.0031518
 H      1   1.0031518  2   106.3431311
 H      1   1.0031518  2   106.3431311  3  -113.0524541  0

          INTERNUCLEAR DISTANCES (ANGS.)
          ------------------------------

                1 N          2 H          3 H          4 H     

   1 N       0.0000000    1.0031518 *  1.0031518 *  1.0031518 *
   2 H       1.0031518 *  0.0000000    1.6059136 *  1.6059136 *
   3 H       1.0031518 *  1.6059136 *  0.0000000    1.6059136 *
   4 H       1.0031518 *  1.6059136 *  1.6059136 *  0.0000000  

  * ... LESS THAN  3.000

 ...... END OF ONE-ELECTRON INTEGRALS ......
 STEP CPU TIME =     0.00 TOTAL CPU TIME =        0.1 (    0.0 MIN)
 TOTAL WALL CLOCK TIME=        0.1 SECONDS, CPU UTILIZATION IS  88.89%
 TOTAL NUMBER OF NONZERO TWO-ELECTRON INTEGRALS =                5020
          1 INTEGRAL RECORDS WERE STORED ON DISK FILE  8.
  ...... END OF TWO-ELECTRON INTEGRALS .....
 STEP CPU TIME =     0.00 TOTAL CPU TIME =        0.1 (    0.0 MIN)
 TOTAL WALL CLOCK TIME=        0.1 SECONDS, CPU UTILIZATION IS  88.89%

          --------------------------
                 RHF SCF CALCULATION
          --------------------------
     DENSITY MATRIX CONV=  1.00E-05

 ITER EX DEM     TOTAL ENERGY        E CHANGE  DENSITY CHANGE    DIIS ERROR
          * * *   INITIATING DIIS PROCEDURE   * * *
   1  0  0      -56.1840115714   -56.1840115714   0.013929631   0.012517862
   2  1  0      -56.1842779317    -0.0002663603   0.005363865   0.004865646
   3  2  0      -56.1843035517    -0.0000256200   0.001838076   0.001693393
   4  3  0      -56.1843086409    -0.0000050891   0.000829247   0.000341569
   5  4  0      -56.1843091134    -0.0000004726   0.000328273   0.000131237
   6  5  0      -56.1843091581    -0.0000000447   0.000066117   0.000017973
   7  6  0      -56.1843091596    -0.0000000015   0.000006074   0.000003953
   8  7  0      -56.1843091597    -0.0000000000   0.000000381   0.000000562

          -----------------
          DENSITY CONVERGED
          -----------------
     TIME TO FORM FOCK OPERATORS=       0.0 SECONDS (       0.0 SEC/ITER)
     TIME TO SOLVE SCF EQUATIONS=       0.0 SECONDS (       0.0 SEC/ITER)

 FINAL RHF ENERGY IS      -56.1843091597 AFTER   8 ITERATIONS
 ...... END OF RHF CALCULATION ......
 STEP CPU TIME =     0.01 TOTAL CPU TIME =        0.1 (    0.0 MIN)
 TOTAL WALL CLOCK TIME=        0.1 SECONDS, CPU UTILIZATION IS  90.00%
 ..... END OF 1-ELECTRON GRADIENT ......
 STEP CPU TIME =     0.00 TOTAL CPU TIME =        0.1 (    0.0 MIN)
 TOTAL WALL CLOCK TIME=        0.1 SECONDS, CPU UTILIZATION IS  90.00%
 ...... END OF 2-ELECTRON GRADIENT ......
 STEP CPU TIME =     0.00 TOTAL CPU TIME =        0.1 (    0.0 MIN)
 TOTAL WALL CLOCK TIME=        0.1 SECONDS, CPU UTILIZATION IS  90.00%

          NSERCH=  3     ENERGY=     -56.1843092

                                 -----------------------
                                 GRADIENT (HARTREE/BOHR)
                                 -----------------------
        ATOM     ZNUC       DE/DX         DE/DY         DE/DZ
 --------------------------------------------------------------
   1  N            7.0     0.0000000     0.0000000     0.0031942
   2  H            1.0    -0.0003550     0.0006149    -0.0010647
   3  H            1.0    -0.0003550    -0.0006149    -0.0010647
   4  H            1.0     0.0007100     0.0000000    -0.0010647

          MAXIMUM GRADIENT =  0.0031942    RMS GRADIENT = 0.0011224
          HESSIAN UPDATED USING THE BFGS FORMULA
             ACTUAL ENERGY CHANGE WAS  -0.0000927980
          PREDICTED ENERGY CHANGE WAS  -0.0002325449 RATIO=  0.399
          MIN SEARCH, CORRECT HESSIAN, TRYING PURE NR STEP
               NR STEP HAS LENGTH         =   0.039812
          RADIUS OF STEP TAKEN=   0.03981  CURRENT TRUST RADIUS=   0.05092

 BEGINNING GEOMETRY SEARCH POINT NSERCH=   4 ...

 COORDINATES OF SYMMETRY UNIQUE ATOMS (ANGS)
   ATOM   CHARGE       X              Y              Z
 ------------------------------------------------------------
 N           7.0  -0.0000000385  -0.0000000000   0.0643424830
 H           1.0  -0.9357160673   0.0000000000  -0.3013007079
 COORDINATES OF ALL ATOMS ARE (ANGS)
   ATOM   CHARGE       X              Y              Z
 ------------------------------------------------------------
 N           7.0  -0.0000000385  -0.0000000000   0.0643424830
 H           1.0   0.4678580336  -0.8103538850  -0.3013007079
 H           1.0   0.4678580336   0.8103538850  -0.3013007079
 H           1.0  -0.9357160673   0.0000000000  -0.3013007079

 THE CURRENT FULLY SUBSTITUTED Z-MATRIX IS
 N   
 H      1   1.0046190
 H      1   1.0046191  2   107.5355504
 H      1   1.0046191  2   107.5355504  3  -115.5452772  0

          INTERNUCLEAR DISTANCES (ANGS.)
          ------------------------------

                1 N          2 H          3 H          4 H     

   1 N       0.0000000    1.0046191 *  1.0046191 *  1.0046190 *
   2 H       1.0046191 *  0.0000000    1.6207078 *  1.6207078 *
   3 H       1.0046191 *  1.6207078 *  0.0000000    1.6207078 *
   4 H       1.0046190 *  1.6207078 *  1.6207078 *  0.0000000  

  * ... LESS THAN  3.000

 ...... END OF ONE-ELECTRON INTEGRALS ......
 STEP CPU TIME =     0.01 TOTAL CPU TIME =        0.1 (    0.0 MIN)
 TOTAL WALL CLOCK TIME=        0.1 SECONDS, CPU UTILIZATION IS 100.00%
 TOTAL NUMBER OF NONZERO TWO-ELECTRON INTEGRALS =                5020
          1 INTEGRAL RECORDS WERE STORED ON DISK FILE  8.
  ...... END OF TWO-ELECTRON INTEGRALS .....
 STEP CPU TIME =     0.00 TOTAL CPU TIME =        0.1 (    0.0 MIN)
 TOTAL WALL CLOCK TIME=        0.1 SECONDS, CPU UTILIZATION IS 100.00%

          --------------------------
                 RHF SCF CALCULATION
          --------------------------
     DENSITY MATRIX CONV=  1.00E-05

 ITER EX DEM     TOTAL ENERGY        E CHANGE  DENSITY CHANGE    DIIS ERROR
          * * *   INITIATING DIIS PROCEDURE   * * *
   1  0  0      -56.1842370642   -56.1842370642   0.004794123   0.008438372
   2  1  0      -56.1843246663    -0.0000876022   0.001901695   0.002005317
   3  2  0      -56.1843303685    -0.0000057021   0.000687115   0.000389965
   4  3  0      -56.1843308474    -0.0000004790   0.000276006   0.000138641
   5  4  0      -56.1843309048    -0.0000000573   0.000139845   0.000049294
   6  5  0      -56.1843309152    -0.0000000105   0.000032637   0.000011007
   7  6  0      -56.1843309156    -0.0000000004   0.000002774   0.000001840
   8  7  0      -56.1843309156    -0.0000000000   0.000000394   0.000000566

          -----------------
          DENSITY CONVERGED
          -----------------
     TIME TO FORM FOCK OPERATORS=       0.0 SECONDS (       0.0 SEC/ITER)
     TIME TO SOLVE SCF EQUATIONS=       0.0 SECONDS (       0.0 SEC/ITER)

 FINAL RHF ENERGY IS      -56.1843309156 AFTER   8 ITERATIONS
 ...... END OF RHF CALCULATION ......
 STEP CPU TIME =     0.00 TOTAL CPU TIME =        0.1 (    0.0 MIN)
 TOTAL WALL CLOCK TIME=        0.1 SECONDS, CPU UTILIZATION IS  90.91%
 ..... END OF 1-ELECTRON GRADIENT ......
 STEP CPU TIME =     0.00 TOTAL CPU TIME =        0.1 (    0.0 MIN)
 TOTAL WALL CLOCK TIME=        0.1 SECONDS, CPU UTILIZATION IS  90.91%
 ...... END OF 2-ELECTRON GRADIENT ......
 STEP CPU TIME =     0.00 TOTAL CPU TIME =        0.1 (    0.0 MIN)
 TOTAL WALL CLOCK TIME=        0.1 SECONDS, CPU UTILIZATION IS  83.33%

          NSERCH=  4     ENERGY=     -56.1843309

                                 -----------------------
                                 GRADIENT (HARTREE/BOHR)
                                 -----------------------
        ATOM     ZNUC       DE/DX         DE/DY         DE/DZ
 --------------------------------------------------------------
   1  N            7.0     0.0000000     0.0000000     0.0007310
   2  H            1.0     0.0012181    -0.0021098    -0.0002437
   3  H            1.0     0.0012181     0.0021098    -0.0002437
   4  H            1.0    -0.0024362     0.0000000    -0.0002437

          MAXIMUM GRADIENT =  0.0024362    RMS GRADIENT = 0.0012422
          HESSIAN UPDATED USING THE BFGS FORMULA
             ACTUAL ENERGY CHANGE WAS  -0.0000217560
          PREDICTED ENERGY CHANGE WAS  -0.0000694632 RATIO=  0.313
          MIN SEARCH, CORRECT HESSIAN, TRYING PURE NR STEP
               NR STEP HAS LENGTH         =   0.015353
          RADIUS OF STEP TAKEN=   0.01535  CURRENT TRUST RADIUS=   0.05000

 BEGINNING GEOMETRY SEARCH POINT NSERCH=   5 ...

 COORDINATES OF SYMMETRY UNIQUE ATOMS (ANGS)
   ATOM   CHARGE       X              Y              Z
 ------------------------------------------------------------
 N           7.0  -0.0000000385  -0.0000000000   0.0670635757
 H           1.0  -0.9313903937   0.0000000000  -0.3022077388
 COORDINATES OF ALL ATOMS ARE (ANGS)
   ATOM   CHARGE       X              Y              Z
 ------------------------------------------------------------
 N           7.0  -0.0000000385  -0.0000000000   0.0670635757
 H           1.0   0.4656951969  -0.8066077418  -0.3022077388
 H           1.0   0.4656951969   0.8066077418  -0.3022077388
 H           1.0  -0.9313903937   0.0000000000  -0.3022077388

 THE CURRENT FULLY SUBSTITUTED Z-MATRIX IS
 N   
 H      1   1.0019228
 H      1   1.0019229  2   107.2320524
 H      1   1.0019229  2   107.2320524  3  -114.8941840  0

          INTERNUCLEAR DISTANCES (ANGS.)
          ------------------------------

                1 N          2 H          3 H          4 H     

   1 N       0.0000000    1.0019229 *  1.0019229 *  1.0019228 *
   2 H       1.0019229 *  0.0000000    1.6132155 *  1.6132155 *
   3 H       1.0019229 *  1.6132155 *  0.0000000    1.6132155 *
   4 H       1.0019228 *  1.6132155 *  1.6132155 *  0.0000000  

  * ... LESS THAN  3.000

 ...... END OF ONE-ELECTRON INTEGRALS ......
 STEP CPU TIME =     0.00 TOTAL CPU TIME =        0.1 (    0.0 MIN)
 TOTAL WALL CLOCK TIME=        0.1 SECONDS, CPU UTILIZATION IS  83.33%
 TOTAL NUMBER OF NONZERO TWO-ELECTRON INTEGRALS =                5020
          1 INTEGRAL RECORDS WERE STORED ON DISK FILE  8.
  ...... END OF TWO-ELECTRON INTEGRALS .....
 STEP CPU TIME =     0.01 TOTAL CPU TIME =        0.1 (    0.0 MIN)
 TOTAL WALL CLOCK TIME=        0.1 SECONDS, CPU UTILIZATION IS  91.67%

          --------------------------
                 RHF SCF CALCULATION
          --------------------------
     DENSITY MATRIX CONV=  1.00E-05

 ITER EX DEM     TOTAL ENERGY        E CHANGE  DENSITY CHANGE    DIIS ERROR
          * * *   INITIATING DIIS PROCEDURE   * * *
   1  0  0      -56.1843424533   -56.1843424533   0.001544710   0.002350241
   2  1  0      -56.1843540124    -0.0000115591   0.000768207   0.000698989
   3  2  0      -56.1843547996    -0.0000007871   0.000178186   0.000286098
   4  3  0      -56.1843549049    -0.0000001053   0.000055853   0.000043991
   5  4  0      -56.1843549084    -0.0000000035   0.000028589   0.000010241
   6  5  0      -56.1843549089    -0.0000000005   0.000007946   0.000003149
   7  6  0      -56.1843549089    -0.0000000000   0.000000609   0.000000568

          -----------------
          DENSITY CONVERGED
          -----------------
     TIME TO FORM FOCK OPERATORS=       0.0 SECONDS (       0.0 SEC/ITER)
     TIME TO SOLVE SCF EQUATIONS=       0.0 SECONDS (       0.0 SEC/ITER)

 FINAL RHF ENERGY IS      -56.1843549089 AFTER   7 ITERATIONS
 ...... END OF RHF CALCULATION ......
 STEP CPU TIME =     0.01 TOTAL CPU TIME =        0.1 (    0.0 MIN)
 TOTAL WALL CLOCK TIME=        0.1 SECONDS, CPU UTILIZATION IS 100.00%
 ..... END OF 1-ELECTRON GRADIENT ......
 STEP CPU TIME =     0.00 TOTAL CPU TIME =        0.1 (    0.0 MIN)
 TOTAL WALL CLOCK TIME=        0.1 SECONDS, CPU UTILIZATION IS  92.31%
 ...... END OF 2-ELECTRON GRADIENT ......
 STEP CPU TIME =     0.01 TOTAL CPU TIME =        0.1 (    0.0 MIN)
 TOTAL WALL CLOCK TIME=        0.1 SECONDS, CPU UTILIZATION IS 100.00%

          NSERCH=  5     ENERGY=     -56.1843549

                                 -----------------------
                                 GRADIENT (HARTREE/BOHR)
                                 -----------------------
        ATOM     ZNUC       DE/DX         DE/DY         DE/DZ
 --------------------------------------------------------------
   1  N            7.0     0.0000000     0.0000000    -0.0006915
   2  H            1.0    -0.0002349     0.0004068     0.0002305
   3  H            1.0    -0.0002349    -0.0004068     0.0002305
   4  H            1.0     0.0004697     0.0000000     0.0002305

          MAXIMUM GRADIENT =  0.0006915    RMS GRADIENT = 0.0003291
          HESSIAN UPDATED USING THE BFGS FORMULA
             ACTUAL ENERGY CHANGE WAS  -0.0000239933
          PREDICTED ENERGY CHANGE WAS  -0.0000273659 RATIO=  0.877
          MIN SEARCH, CORRECT HESSIAN, TRYING PURE NR STEP
               NR STEP HAS LENGTH         =   0.002214
          RADIUS OF STEP TAKEN=   0.00221  CURRENT TRUST RADIUS=   0.05000

 BEGINNING GEOMETRY SEARCH POINT NSERCH=   6 ...

 COORDINATES OF SYMMETRY UNIQUE ATOMS (ANGS)
   ATOM   CHARGE       X              Y              Z
 ------------------------------------------------------------
 N           7.0  -0.0000000385  -0.0000000000   0.0680324128
 H           1.0  -0.9315910780   0.0000000000  -0.3025306845
 COORDINATES OF ALL ATOMS ARE (ANGS)
   ATOM   CHARGE       X              Y              Z
 ------------------------------------------------------------
 N           7.0  -0.0000000385  -0.0000000000   0.0680324128
 H           1.0   0.4657955390  -0.8067815395  -0.3025306845
 H           1.0   0.4657955390   0.8067815395  -0.3025306845
 H           1.0  -0.9315910780   0.0000000000  -0.3025306845

 THE CURRENT FULLY SUBSTITUTED Z-MATRIX IS
 N   
 H      1   1.0025861
 H      1   1.0025861  2   107.1626794
 H      1   1.0025861  2   107.1626794  3  -114.7470000  0

          INTERNUCLEAR DISTANCES (ANGS.)
          ------------------------------

                1 N          2 H          3 H          4 H     

   1 N       0.0000000    1.0025861 *  1.0025861 *  1.0025861 *
   2 H       1.0025861 *  0.0000000    1.6135631 *  1.6135631 *
   3 H       1.0025861 *  1.6135631 *  0.0000000    1.6135631 *
   4 H       1.0025861 *  1.6135631 *  1.6135631 *  0.0000000  

  * ... LESS THAN  3.000

 ...... END OF ONE-ELECTRON INTEGRALS ......
 STEP CPU TIME =     0.00 TOTAL CPU TIME =        0.1 (    0.0 MIN)
 TOTAL WALL CLOCK TIME=        0.1 SECONDS, CPU UTILIZATION IS 100.00%
 TOTAL NUMBER OF NONZERO TWO-ELECTRON INTEGRALS =                5020
          1 INTEGRAL RECORDS WERE STORED ON DISK FILE  8.
  ...... END OF TWO-ELECTRON INTEGRALS .....
 STEP CPU TIME =     0.00 TOTAL CPU TIME =        0.1 (    0.0 MIN)
 TOTAL WALL CLOCK TIME=        0.1 SECONDS, CPU UTILIZATION IS  92.86%

          --------------------------
                 RHF SCF CALCULATION
          --------------------------
     DENSITY MATRIX CONV=  1.00E-05

 ITER EX DEM     TOTAL ENERGY        E CHANGE  DENSITY CHANGE    DIIS ERROR
          * * *   INITIATING DIIS PROCEDURE   * * *
   1  0  0      -56.1843530786   -56.1843530786   0.000822561   0.000632334
   2  1  0      -56.1843557553    -0.0000026767   0.000279184   0.000338397
   3  2  0      -56.1843558506    -0.0000000953   0.000124858   0.000085928
   4  3  0      -56.1843558678    -0.0000000171   0.000050254   0.000018021
   5  4  0      -56.1843558689    -0.0000000012   0.000010867   0.000004017
   6  5  0      -56.1843558690    -0.0000000000   0.000002636   0.000000687
   7  6  0      -56.1843558690    -0.0000000000   0.000000264   0.000000567

          -----------------
          DENSITY CONVERGED
          -----------------
     TIME TO FORM FOCK OPERATORS=       0.0 SECONDS (       0.0 SEC/ITER)
     TIME TO SOLVE SCF EQUATIONS=       0.0 SECONDS (       0.0 SEC/ITER)

 FINAL RHF ENERGY IS      -56.1843558690 AFTER   7 ITERATIONS
 ...... END OF RHF CALCULATION ......
 STEP CPU TIME =     0.00 TOTAL CPU TIME =        0.1 (    0.0 MIN)
 TOTAL WALL CLOCK TIME=        0.1 SECONDS, CPU UTILIZATION IS  92.86%
 ..... END OF 1-ELECTRON GRADIENT ......
 STEP CPU TIME =     0.00 TOTAL CPU TIME =        0.1 (    0.0 MIN)
 TOTAL WALL CLOCK TIME=        0.1 SECONDS, CPU UTILIZATION IS  92.86%
 ...... END OF 2-ELECTRON GRADIENT ......
 STEP CPU TIME =     0.01 TOTAL CPU TIME =        0.1 (    0.0 MIN)
 TOTAL WALL CLOCK TIME=        0.1 SECONDS, CPU UTILIZATION IS 100.00%

          NSERCH=  6     ENERGY=     -56.1843559

                                 -----------------------
                                 GRADIENT (HARTREE/BOHR)
                                 -----------------------
        ATOM     ZNUC       DE/DX         DE/DY         DE/DZ
 --------------------------------------------------------------
   1  N            7.0     0.0000000     0.0000000     0.0001089
   2  H            1.0     0.0000162    -0.0000281    -0.0000363
   3  H            1.0     0.0000162     0.0000281    -0.0000363
   4  H            1.0    -0.0000325     0.0000000    -0.0000363

          MAXIMUM GRADIENT =  0.0001089    RMS GRADIENT = 0.0000398
          HESSIAN UPDATED USING THE BFGS FORMULA
             ACTUAL ENERGY CHANGE WAS  -0.0000009601
          PREDICTED ENERGY CHANGE WAS  -0.0000011112 RATIO=  0.864
          MIN SEARCH, CORRECT HESSIAN, TRYING PURE NR STEP
               NR STEP HAS LENGTH         =   0.000498
          RADIUS OF STEP TAKEN=   0.00050  CURRENT TRUST RADIUS=   0.05000

 BEGINNING GEOMETRY SEARCH POINT NSERCH=   7 ...

 COORDINATES OF SYMMETRY UNIQUE ATOMS (ANGS)
   ATOM   CHARGE       X              Y              Z
 ------------------------------------------------------------
 N           7.0  -0.0000000385  -0.0000000000   0.0678155918
 H           1.0  -0.9316382969   0.0000000000  -0.3024584108
 COORDINATES OF ALL ATOMS ARE (ANGS)
   ATOM   CHARGE       X              Y              Z
 ------------------------------------------------------------
 N           7.0  -0.0000000385  -0.0000000000   0.0678155918
 H           1.0   0.4658191484  -0.8068224322  -0.3024584108
 H           1.0   0.4658191484   0.8068224322  -0.3024584108
 H           1.0  -0.9316382969   0.0000000000  -0.3024584108

 THE CURRENT FULLY SUBSTITUTED Z-MATRIX IS
 N   
 H      1   1.0025232
 H      1   1.0025232  2   107.1803051
 H      1   1.0025232  2   107.1803051  3  -114.7843381  0

          INTERNUCLEAR DISTANCES (ANGS.)
          ------------------------------

                1 N          2 H          3 H          4 H     

   1 N       0.0000000    1.0025232 *  1.0025232 *  1.0025232 *
   2 H       1.0025232 *  0.0000000    1.6136449 *  1.6136449 *
   3 H       1.0025232 *  1.6136449 *  0.0000000    1.6136449 *
   4 H       1.0025232 *  1.6136449 *  1.6136449 *  0.0000000  

  * ... LESS THAN  3.000

 ...... END OF ONE-ELECTRON INTEGRALS ......
 STEP CPU TIME =     0.00 TOTAL CPU TIME =        0.1 (    0.0 MIN)
 TOTAL WALL CLOCK TIME=        0.1 SECONDS, CPU UTILIZATION IS  93.33%
 TOTAL NUMBER OF NONZERO TWO-ELECTRON INTEGRALS =                5020
          1 INTEGRAL RECORDS WERE STORED ON DISK FILE  8.
  ...... END OF TWO-ELECTRON INTEGRALS .....
 STEP CPU TIME =     0.00 TOTAL CPU TIME =        0.1 (    0.0 MIN)
 TOTAL WALL CLOCK TIME=        0.1 SECONDS, CPU UTILIZATION IS  93.33%

          --------------------------
                 RHF SCF CALCULATION
          --------------------------
     DENSITY MATRIX CONV=  1.00E-05

 ITER EX DEM     TOTAL ENERGY        E CHANGE  DENSITY CHANGE    DIIS ERROR
          * * *   INITIATING DIIS PROCEDURE   * * *
   1  0  0      -56.1843538888   -56.1843538888   0.000134216   0.000120836
   2  1  0      -56.1843558911    -0.0000020023   0.000050913   0.000044271
   3  2  0      -56.1843558934    -0.0000000023   0.000016622   0.000015701
   4  3  0      -56.1843558939    -0.0000000004   0.000008136   0.000003179
   5  4  0      -56.1843558939    -0.0000000000   0.000003371   0.000001271

          -----------------
          DENSITY CONVERGED
          -----------------
     TIME TO FORM FOCK OPERATORS=       0.0 SECONDS (       0.0 SEC/ITER)
     TIME TO SOLVE SCF EQUATIONS=       0.0 SECONDS (       0.0 SEC/ITER)

 FINAL RHF ENERGY IS      -56.1843558939 AFTER   5 ITERATIONS
 ...... END OF RHF CALCULATION ......
 STEP CPU TIME =     0.01 TOTAL CPU TIME =        0.1 (    0.0 MIN)
 TOTAL WALL CLOCK TIME=        0.1 SECONDS, CPU UTILIZATION IS 100.00%
 ..... END OF 1-ELECTRON GRADIENT ......
 STEP CPU TIME =     0.00 TOTAL CPU TIME =        0.1 (    0.0 MIN)
 TOTAL WALL CLOCK TIME=        0.2 SECONDS, CPU UTILIZATION IS  93.75%
 ...... END OF 2-ELECTRON GRADIENT ......
 STEP CPU TIME =     0.00 TOTAL CPU TIME =        0.1 (    0.0 MIN)
 TOTAL WALL CLOCK TIME=        0.2 SECONDS, CPU UTILIZATION IS  93.75%

          NSERCH=  7     ENERGY=     -56.1843559

                                 -----------------------
                                 GRADIENT (HARTREE/BOHR)
                                 -----------------------
        ATOM     ZNUC       DE/DX         DE/DY         DE/DZ
 --------------------------------------------------------------
   1  N            7.0     0.0000000     0.0000000    -0.0000011
   2  H            1.0     0.0000008    -0.0000014     0.0000004
   3  H            1.0     0.0000008     0.0000014     0.0000004
   4  H            1.0    -0.0000016     0.0000000     0.0000004

          MAXIMUM GRADIENT =  0.0000016    RMS GRADIENT = 0.0000009

      ***** EQUILIBRIUM GEOMETRY LOCATED *****
 COORDINATES OF SYMMETRY UNIQUE ATOMS (ANGS)
   ATOM   CHARGE       X              Y              Z
 ------------------------------------------------------------
 N           7.0  -0.0000000385  -0.0000000000   0.0678155918
 H           1.0  -0.9316382969   0.0000000000  -0.3024584108
 COORDINATES OF ALL ATOMS ARE (ANGS)
   ATOM   CHARGE       X              Y              Z
 ------------------------------------------------------------
 N           7.0  -0.0000000385  -0.0000000000   0.0678155918
 H           1.0   0.4658191484  -0.8068224322  -0.3024584108
 H           1.0   0.4658191484   0.8068224322  -0.3024584108
 H           1.0  -0.9316382969   0.0000000000  -0.3024584108

 THE CURRENT FULLY SUBSTITUTED Z-MATRIX IS
 N   
 H      1   1.0025232
 H      1   1.0025232  2   107.1803051
 H      1   1.0025232  2   107.1803051  3  -114.7843381  0

          INTERNUCLEAR DISTANCES (ANGS.)
          ------------------------------

                1 N          2 H          3 H          4 H     

   1 N       0.0000000    1.0025232 *  1.0025232 *  1.0025232 *
   2 H       1.0025232 *  0.0000000    1.6136449 *  1.6136449 *
   3 H       1.0025232 *  1.6136449 *  0.0000000    1.6136449 *
   4 H       1.0025232 *  1.6136449 *  1.6136449 *  0.0000000  

  * ... LESS THAN  3.000


          NUCLEAR ENERGY    =       12.0685705667
          ELECTRONIC ENERGY =      -68.2529264607
          TOTAL ENERGY      =      -56.1843558939

          ------------------
          MOLECULAR ORBITALS
          ------------------

                      1          2          3          4          5
                  -15.5344    -1.1402    -0.6276    -0.6276    -0.4198
                     ?A1        ?A1        ?E         E          ?A1 
    1  N  1  S    0.994957  -0.197522   0.000000   0.000000   0.062985
    2  N  1  S    0.024839   0.410376   0.000000   0.000000  -0.147939
    3  N  1  X    0.000000   0.000000   0.472875   0.000000   0.000000
    4  N  1  Y    0.000000   0.000000   0.000000   0.472875   0.000000
    5  N  1  Z   -0.001516  -0.088821   0.000000   0.000000  -0.555247
    6  N  1  S   -0.001559   0.427722   0.000000   0.000000  -0.268447
    7  N  1  X    0.000000   0.000000   0.278096   0.000000   0.000000
    8  N  1  Y    0.000000   0.000000   0.000000   0.278096   0.000000
    9  N  1  Z    0.000890  -0.047808   0.000000   0.000000  -0.491975
   10  N  1 XX   -0.003528   0.014937  -0.021420   0.000000  -0.008673
   11  N  1 YY   -0.003528   0.014937   0.021420   0.000000  -0.008673
   12  N  1 ZZ   -0.003353   0.000102   0.000000   0.000000   0.032140
   13  N  1 XY    0.000000   0.000000   0.000000   0.024733   0.000000
   14  N  1 XZ    0.000000   0.000000  -0.039406   0.000000   0.000000
   15  N  1 YZ    0.000000   0.000000   0.000000  -0.039406   0.000000
   16  H  2  S    0.000223   0.137640   0.138452  -0.239806   0.064356
   17  H  2  S    0.000557   0.009873   0.081650  -0.141422   0.046347
   18  H  3  S    0.000223   0.137640   0.138452   0.239806   0.064356
   19  H  3  S    0.000557   0.009873   0.081650   0.141422   0.046347
   20  H  4  S    0.000223   0.137640  -0.276904   0.000000   0.064356
   21  H  4  S    0.000557   0.009873  -0.163299   0.000000   0.046347

                      6          7          8          9         10
                    0.2229     0.3249     0.3249     0.8965     0.8965
                     ?A1        ?E         E          ?E         E   
    1  N  1  S   -0.125707   0.000000   0.000000   0.000000   0.000000
    2  N  1  S    0.100181   0.000000   0.000000   0.000000   0.000000
    3  N  1  X    0.000000   0.330100   0.000000  -0.366572   0.000000
    4  N  1  Y    0.000000   0.000000   0.330100   0.000000  -0.366572
    5  N  1  Z   -0.143224   0.000000   0.000000   0.000000   0.000000
    6  N  1  S    2.008812   0.000000   0.000000   0.000000   0.000000
    7  N  1  X    0.000000   1.131295   0.000000   1.230560   0.000000
    8  N  1  Y    0.000000   0.000000   1.131295   0.000000   1.230560
    9  N  1  Z   -0.490244   0.000000   0.000000   0.000000   0.000000
   10  N  1 XX   -0.039776   0.001751   0.000000   0.119440   0.000000
   11  N  1 YY   -0.039776  -0.001751   0.000000  -0.119440   0.000000
   12  N  1 ZZ   -0.040237   0.000000   0.000000   0.000000   0.000000
   13  N  1 XY    0.000000   0.000000  -0.002022   0.000000  -0.137918
   14  N  1 XZ    0.000000  -0.016766   0.000000   0.081187   0.000000
   15  N  1 YZ    0.000000   0.000000  -0.016766   0.000000   0.081187
   16  H  2  S   -0.026762  -0.021996   0.038098  -0.384248   0.665537
   17  H  2  S   -0.985276  -0.900264   1.559302   0.009521  -0.016490
   18  H  3  S   -0.026762  -0.021996  -0.038098  -0.384248  -0.665537
   19  H  3  S   -0.985276  -0.900264  -1.559302   0.009521   0.016490
   20  H  4  S   -0.026762   0.043991   0.000000   0.768496   0.000000
   21  H  4  S   -0.985276   1.800527   0.000000  -0.019041   0.000000

                     11         12         13         14         15
                    0.9699     1.2190     1.2322     1.2322     1.3643
                     ?A1        ?A1        ?E         E          ?A1 
    1  N  1  S    0.017288   0.061561   0.000000   0.000000  -0.094188
    2  N  1  S   -0.245896  -0.699474   0.000000   0.000000  -1.532721
    3  N  1  X    0.000000   0.000000   1.025925   0.000000   0.000000
    4  N  1  Y    0.000000   0.000000   0.000000   1.025925   0.000000
    5  N  1  Z   -0.957823   0.346546   0.000000   0.000000   0.158455
    6  N  1  S    0.152794   0.988450   0.000000   0.000000   4.181824
    7  N  1  X    0.000000   0.000000  -1.319732   0.000000   0.000000
    8  N  1  Y    0.000000   0.000000   0.000000  -1.319732   0.000000
    9  N  1  Z    1.084958  -0.081909   0.000000   0.000000  -0.813648
   10  N  1 XX   -0.061421  -0.001453   0.109296   0.000000  -0.416762
   11  N  1 YY   -0.061421  -0.001453  -0.109296   0.000000  -0.416762
   12  N  1 ZZ   -0.077761  -0.288072   0.000000   0.000000  -0.085524
   13  N  1 XY    0.000000   0.000000   0.000000  -0.126204   0.000000
   14  N  1 XZ    0.000000   0.000000   0.079124   0.000000   0.000000
   15  N  1 YZ    0.000000   0.000000   0.000000   0.079124   0.000000
   16  H  2  S    0.111729   0.691281  -0.278601   0.482550  -0.339845
   17  H  2  S    0.043367  -0.541332   0.676593  -1.171893  -0.806239
   18  H  3  S    0.111729   0.691281  -0.278601  -0.482550  -0.339845
   19  H  3  S    0.043367  -0.541332   0.676593   1.171893  -0.806239
   20  H  4  S    0.111729   0.691281   0.557201   0.000000  -0.339845
   21  H  4  S    0.043367  -0.541332  -1.353186   0.000000  -0.806239

     ----------------------------------------------------------------
     PROPERTY VALUES FOR THE RHF   SELF-CONSISTENT FIELD WAVEFUNCTION
     ----------------------------------------------------------------

          -----------------
          ENERGY COMPONENTS
          -----------------

         WAVEFUNCTION NORMALIZATION =       0.9999999958

                ONE ELECTRON ENERGY =     -99.8063913394
                TWO ELECTRON ENERGY =      31.5534648787
           NUCLEAR REPULSION ENERGY =      12.0685705667
                                      ------------------
                       TOTAL ENERGY =     -56.1843558939

 ELECTRON-ELECTRON POTENTIAL ENERGY =      31.5534648787
  NUCLEUS-ELECTRON POTENTIAL ENERGY =    -155.9082325300
   NUCLEUS-NUCLEUS POTENTIAL ENERGY =      12.0685705667
                                      ------------------
             TOTAL POTENTIAL ENERGY =    -112.2861970846
               TOTAL KINETIC ENERGY =      56.1018411906
                 VIRIAL RATIO (V/T) =       2.0014708021

          ---------------------------------------
          MULLIKEN AND LOWDIN POPULATION ANALYSES
          ---------------------------------------

     ATOMIC MULLIKEN POPULATION IN EACH MOLECULAR ORBITAL

                      1          2          3          4          5

                  2.000000   2.000000   2.000000   2.000000   2.000000

    1             1.999657   1.574959   1.244748   1.244748   1.931873
    2             0.000114   0.141680   0.125875   0.377626   0.022709
    3             0.000114   0.141680   0.125875   0.377626   0.022709
    4             0.000114   0.141680   0.503501   0.000000   0.022709

               ----- POPULATIONS IN EACH AO -----
                             MULLIKEN      LOWDIN
              1  N  1  S      1.99547     1.97925
              2  N  1  S      0.76751     0.52144
              3  N  1  X      0.74771     0.68724
              4  N  1  Y      0.74771     0.68757
              5  N  1  Z      0.96750     0.94500
              6  N  1  S      0.88837     0.42353
              7  N  1  X      0.47815     0.55409
              8  N  1  Y      0.47815     0.55501
              9  N  1  Z      0.85140     0.87382
             10  N  1 XX      0.02693     0.19707
             11  N  1 YY      0.02693     0.19707
             12  N  1 ZZ     -0.00998     0.14980
             13  N  1 XY      0.00765     0.01211
             14  N  1 XZ      0.01124     0.01326
             15  N  1 YZ      0.01124     0.01332
             16  H  2  S      0.50598     0.46449
             17  H  2  S      0.16202     0.26512
             18  H  3  S      0.50598     0.46449
             19  H  3  S      0.16202     0.26512
             20  H  4  S      0.50598     0.46599
             21  H  4  S      0.16202     0.26520

          ----- MULLIKEN ATOMIC OVERLAP POPULATIONS -----
          (OFF-DIAGONAL ELEMENTS NEED TO BE MULTIPLIED BY 2)

             1           2           3           4

    1    7.0009450
    2    0.3316804   0.3878494
    3    0.3316804  -0.0257626   0.3878494
    4    0.3316804  -0.0257626  -0.0257626   0.3878494

          TOTAL MULLIKEN AND LOWDIN ATOMIC POPULATIONS
       ATOM         MULL.POP.    CHARGE          LOW.POP.     CHARGE
    1 N             7.995986   -0.995986         7.809593   -0.809593
    2 H             0.668005    0.331995         0.729607    0.270393
    3 H             0.668005    0.331995         0.729607    0.270393
    4 H             0.668005    0.331995         0.731193    0.268807

          -------------------------------
          BOND ORDER AND VALENCE ANALYSIS     BOND ORDER THRESHOLD=0.050
          -------------------------------

                   BOND                       BOND                       BOND
  ATOM PAIR DIST  ORDER      ATOM PAIR DIST  ORDER      ATOM PAIR DIST  ORDER
    1   2  1.003  0.865        1   3  1.003  0.865        1   4  1.003  0.865

                       TOTAL       BONDED        FREE
      ATOM            VALENCE     VALENCE     VALENCE
    1 N                 2.596       2.596       0.000
    2 H                 0.852       0.852       0.000
    3 H                 0.852       0.852       0.000
    4 H                 0.852       0.852      -0.000

          ---------------------
          ELECTROSTATIC MOMENTS
          ---------------------

 POINT   1           X           Y           Z (BOHR)    CHARGE
                -0.000000   -0.000000    0.003901        0.00 (A.U.)
         DX          DY          DZ         /D/  (DEBYE)
     0.000000   -0.000000   -1.919876    1.919876
 ...... END OF PROPERTY EVALUATION ......
 STEP CPU TIME =     0.01 TOTAL CPU TIME =        0.2 (    0.0 MIN)
 TOTAL WALL CLOCK TIME=        0.2 SECONDS, CPU UTILIZATION IS 100.00%
  $VIB   
          IVIB=   0 IATOM=   0 ICOORD=   0 E=      -56.1843558939
  0.000000000E+00 0.000000000E+00-1.102654605E-06 7.877532792E-07-1.364428703E-06
  3.675515405E-07 7.877532792E-07 1.364428703E-06 3.675515405E-07-1.575506558E-06
  0.000000000E+00 3.675515405E-07
  3.074159594E-07-1.002543492E-14-1.919876451E+00
 ......END OF GEOMETRY SEARCH......
 STEP CPU TIME =     0.00 TOTAL CPU TIME =        0.2 (    0.0 MIN)
 TOTAL WALL CLOCK TIME=        0.2 SECONDS, CPU UTILIZATION IS 100.00%
      996539  WORDS OF DYNAMIC MEMORY USED
 EXECUTION OF GAMESS TERMINATED NORMALLY Mon Oct  3 11:37:10 2011
 DDI: 263224 bytes (0.3 MB / 0 MWords) used by master data server.

 ----------------------------------------
 CPU timing information for all processes
 ========================================
 0: 0.132 + 0.32 = 0.164
 ----------------------------------------
 ddikick.x: exited gracefully.
unset echo
----- accounting info -----
Files used on the master node idhi were:
-rw-r--r-- 1 koushik koushik     204 2011-10-03 11:37 /home/koushik/Desktop/gamess/ammoniaopt.F05
-rw-r--r-- 1 koushik koushik  180012 2011-10-03 11:37 /home/koushik/Desktop/gamess/ammoniaopt.F08
-rw-r--r-- 1 koushik koushik 1341520 2011-10-03 11:37 /home/koushik/Desktop/gamess/ammoniaopt.F10
Mon Oct  3 11:37:13 IST 2011
0.1u 0.0s 0:03.24 3.7% 0+0k 0+24io 0pf+0w
