          ******************************************************
          *         GAMESS VERSION =  1 OCT 2010 (R1)          *
          *             FROM IOWA STATE UNIVERSITY             *
          * M.W.SCHMIDT, K.K.BALDRIDGE, J.A.BOATZ, S.T.ELBERT, *
          *   M.S.GORDON, J.H.JENSEN, S.KOSEKI, N.MATSUNAGA,   *
          *          K.A.NGUYEN, S.J.SU, T.L.WINDUS,           *
          *       TOGETHER WITH M.DUPUIS, J.A.MONTGOMERY       *
          *         J.COMPUT.CHEM.  14, 1347-1363(1993)        *
          **************** 32 BIT LINUX VERSION ****************

  SINCE 1993, STUDENTS AND POSTDOCS WORKING AT IOWA STATE UNIVERSITY
  AND ALSO IN THEIR VARIOUS JOBS AFTER LEAVING ISU HAVE MADE IMPORTANT
  CONTRIBUTIONS TO THE CODE:
     IVANA ADAMOVIC, CHRISTINE AIKENS, YURI ALEXEEV, POOJA ARORA,
     ANDREY ASADCHEV, ROB BELL, PRADIPTA BANDYOPADHYAY, JONATHAN BENTZ,
     BRETT BODE, GALINA CHABAN, WEI CHEN, CHEOL HO CHOI, PAUL DAY, TIM DUDLEY,
     DMITRI FEDOROV, GRAHAM FLETCHER, MARK FREITAG, KURT GLAESEMANN, DAN KEMP,
     GRANT MERRILL, NORIYUKI MINEZAWA, JONATHAN MULLIN, TAKESHI NAGATA,
     SEAN NEDD, HEATHER NETZLOFF, BOSILJKA NJEGIC, RYAN OLSON, MIKE PAK,
     JIM SHOEMAKER, LYUDMILA SLIPCHENKO, SAROM SOK, JIE SONG,
     TETSUYA TAKETSUGU, SIMON WEBB, SOOHAENG YOO, FEDERICO ZAHARIEV

  ADDITIONAL CODE HAS BEEN PROVIDED BY COLLABORATORS IN OTHER GROUPS:
     IOWA STATE UNIVERSITY:
          JOE IVANIC, LAIMUTIS BYTAUTAS, KLAUS RUEDENBERG
     UNIVERSITY OF TOKYO: KIMIHIKO HIRAO, TAKAHITO NAKAJIMA,
          TAKAO TSUNEDA, MUNEAKI KAMIYA, SUSUMU YANAGISAWA,
          KIYOSHI YAGI, MAHITO CHIBA, SEIKEN TOKURA, NAOAKI KAWAKAMI
     UNIVERSITY OF AARHUS: FRANK JENSEN
     UNIVERSITY OF IOWA: VISVALDAS KAIRYS, HUI LI
     NATIONAL INST. OF STANDARDS AND TECHNOLOGY: WALT STEVENS, DAVID GARMER
     UNIVERSITY OF PISA: BENEDETTA MENNUCCI, JACOPO TOMASI
     UNIVERSITY OF MEMPHIS: HENRY KURTZ, PRAKASHAN KORAMBATH
     UNIVERSITY OF ALBERTA: TOBY ZENG, MARIUSZ KLOBUKOWSKI
     UNIVERSITY OF NEW ENGLAND: MARK SPACKMAN
     MIE UNIVERSITY: HIROAKI UMEDA
     MICHIGAN STATE UNIVERSITY:
          KAROL KOWALSKI, MARTA WLOCH, JEFFREY GOUR, JESSE LUTZ, PIOTR PIECUCH
     UNIVERSITY OF SILESIA: MONIKA MUSIAL, STANISLAW KUCHARSKI
     FACULTES UNIVERSITAIRES NOTRE-DAME DE LA PAIX:
          OLIVIER QUINET, BENOIT CHAMPAGNE
     UNIVERSITY OF CALIFORNIA - SANTA BARBARA: BERNARD KIRTMAN
     INSTITUTE FOR MOLECULAR SCIENCE:
          KAZUYA ISHIMURA, MICHIO KATOUDA, AND SHIGERU NAGASE
     UNIVERSITY OF NOTRE DAME: DAN CHIPMAN
     KYUSHU UNIVERSITY:
          HARUYUKI NAKANO,
          FENG LONG GU, JACEK KORCHOWIEC, MARCIN MAKOWSKI, AND YURIKO AOKI,
          HIROTOSHI MORI AND EISAKU MIYOSHI
     PENNSYLVANIA STATE UNIVERSITY:
          TZVETELIN IORDANOV, CHET SWALINA, JONATHAN SKONE,
          SHARON HAMMES-SCHIFFER
     WASEDA UNIVERSITY:
          MASATO KOBAYASHI, TOMOKO AKAMA, HIROMI NAKAI
     UNIVERSITY OF NEBRASKA:
          PEIFENG SU, DEJUN SI, YALI WANG, HUI LI
     UNIVERSITY OF ZURICH:
          ROBERTO PEVERATI, KIM BALDRIDGE
     N. COPERNICUS UNIVERSITY AND JACKSON STATE UNIVERSITY:
          MARIA BARYSZ

 EXECUTION OF GAMESS BEGUN Mon Oct  3 15:38:05 2011

            ECHO OF THE FIRST FEW INPUT CARDS -
 INPUT CARD> $CONTRL RUNTYP=HESSIAN COORD=ZMT UNITS=ANGS $END                               
 INPUT CARD> $BASIS  GBASIS=N31 NGAUSS=6 NDFUNC=1 $END                                      
 INPUT CARD> $DATA                                                                          
 INPUT CARD>6-31g(d)/ Methane normal modes                                                  
 INPUT CARD>CnV 3                                                                           
 INPUT CARD>                                                                                
 INPUT CARD>C                                                                               
 INPUT CARD>H  1   1.0836691                                                                
 INPUT CARD>H  1   1.0836628  2   109.4699337                                               
 INPUT CARD>H  1   1.0836628  2   109.4699337  3   120.0000000                              
 INPUT CARD>H  1   1.0836628  2   109.4699337  3  -120.0000000                              
 INPUT CARD> $END                                                                           
 INPUT CARD>                                                                                
    1000000 WORDS OF MEMORY AVAILABLE

     BASIS OPTIONS
     -------------
     GBASIS=N31          IGAUSS=       6      POLAR=POPN31  
     NDFUNC=       1     NFFUNC=       0     DIFFSP=       F
     NPFUNC=       0      DIFFS=       F     BASNAM=        


     RUN TITLE
     ---------
 6-31g(d)/ Methane normal modes                                                  

 THE POINT GROUP OF THE MOLECULE IS CNV     
 THE ORDER OF THE PRINCIPAL AXIS IS     3

 YOUR FULLY SUBSTITUTED Z-MATRIX IS
 C   
 H      1   1.0836691
 H      1   1.0836628  2  109.4699
 H      1   1.0836628  2  109.4699  3  120.0000  0
 H      1   1.0836628  2  109.4699  3 -120.0000  0

 THE MOMENTS OF INERTIA ARE (AMU-ANGSTROM**2)
 IXX=     3.156   IYY=     3.156   IZZ=     3.156

 ATOM      ATOMIC                      COORDINATES (BOHR)
           CHARGE         X                   Y                   Z
 C           6.0     0.0000000000        0.0000000000       -0.0000089272
 H           1.0     0.0000000000        0.0000000000        2.0478287331
 H           1.0    -0.9653619846        1.6720560051       -0.6825741460
 H           1.0    -0.9653619846       -1.6720560051       -0.6825741460
 H           1.0     1.9307239692        0.0000000000       -0.6825741460

          INTERNUCLEAR DISTANCES (ANGS.)
          ------------------------------

                1 C          2 H          3 H          4 H          5 H     

   1 C       0.0000000    1.0836691 *  1.0836628 *  1.0836628 *  1.0836628 *
   2 H       1.0836691 *  0.0000000    1.7696050 *  1.7696050 *  1.7696050 *
   3 H       1.0836628 *  1.7696050 *  0.0000000    1.7696280 *  1.7696280 *
   4 H       1.0836628 *  1.7696050 *  1.7696280 *  0.0000000    1.7696280 *
   5 H       1.0836628 *  1.7696050 *  1.7696280 *  1.7696280 *  0.0000000  

  * ... LESS THAN  3.000


     ATOMIC BASIS SET
     ----------------
 THE CONTRACTED PRIMITIVE FUNCTIONS HAVE BEEN UNNORMALIZED
 THE CONTRACTED BASIS FUNCTIONS ARE NOW NORMALIZED TO UNITY

  SHELL TYPE  PRIMITIVE        EXPONENT          CONTRACTION COEFFICIENT(S)

 C         

      1   S       1          3047.5248800    0.001834737132
      1   S       2           457.3695180    0.014037322813
      1   S       3           103.9486850    0.068842622264
      1   S       4            29.2101553    0.232184443216
      1   S       5             9.2866630    0.467941348435
      1   S       6             3.1639270    0.362311985337

      2   L       7             7.8682723   -0.119332419775    0.068999066591
      2   L       8             1.8812885   -0.160854151696    0.316423960957
      2   L       9             0.5442493    1.143456437840    0.744308290898

      3   L      10             0.1687145    1.000000000000    1.000000000000

      4   D      11             0.8000000    1.000000000000

 H         

      5   S      12            18.7311370    0.033494604338
      5   S      13             2.8253944    0.234726953484
      5   S      14             0.6401217    0.813757326146

      6   S      15             0.1612778    1.000000000000

 H         

     11   S      16            18.7311370    0.033494604338
     11   S      17             2.8253944    0.234726953484
     11   S      18             0.6401217    0.813757326146

     12   S      19             0.1612778    1.000000000000

 TOTAL NUMBER OF BASIS SET SHELLS             =   12
 NUMBER OF CARTESIAN GAUSSIAN BASIS FUNCTIONS =   23
 NUMBER OF ELECTRONS                          =   10
 CHARGE OF MOLECULE                           =    0
 SPIN MULTIPLICITY                            =    1
 NUMBER OF OCCUPIED ORBITALS (ALPHA)          =    5
 NUMBER OF OCCUPIED ORBITALS (BETA )          =    5
 TOTAL NUMBER OF ATOMS                        =    5
 THE NUCLEAR REPULSION ENERGY IS       13.5139400042

     $CONTRL OPTIONS
     ---------------
 SCFTYP=RHF          RUNTYP=HESSIAN      EXETYP=RUN     
 MPLEVL=       0     CITYP =NONE         CCTYP =NONE         VBTYP =NONE    
 DFTTYP=NONE         TDDFT =NONE    
 MULT  =       1     ICHARG=       0     NZVAR =       0     COORD =ZMT     
 PP    =NONE         RELWFN=NONE         LOCAL =NONE         NUMGRD=       F
 ISPHER=      -1     NOSYM =       0     MAXIT =      30     UNITS =ANGS    
 PLTORB=       F     MOLPLT=       F     AIMPAC=       F     FRIEND=        
 NPRINT=       7     IREST =       0     GEOM  =INPUT   
 NORMF =       0     NORMP =       0     ITOL  =      20     ICUT  =       9
 INTTYP=BEST         GRDTYP=BEST         QMTTOL= 1.0E-06

     $SYSTEM OPTIONS
     ---------------
  REPLICATED MEMORY=     1000000 WORDS (ON EVERY NODE).
 DISTRIBUTED MEMDDI=           0 MILLION WORDS IN AGGREGATE,
 MEMDDI DISTRIBUTED OVER   1 PROCESSORS IS           0 WORDS/PROCESSOR.
 TOTAL MEMORY REQUESTED ON EACH PROCESSOR=     1000000 WORDS.
 TIMLIM=      525600.00 MINUTES, OR     365.0 DAYS.
 PARALL= F  BALTYP=  DLB     KDIAG=    0  COREFL= F
 MXSEQ2=     300 MXSEQ3=     150

          ----------------
          PROPERTIES INPUT
          ----------------

     MOMENTS            FIELD           POTENTIAL          DENSITY
 IEMOM =       1   IEFLD =       0   IEPOT =       0   IEDEN =       0
 WHERE =COMASS     WHERE =NUCLEI     WHERE =NUCLEI     WHERE =NUCLEI  
 OUTPUT=BOTH       OUTPUT=BOTH       OUTPUT=BOTH       OUTPUT=BOTH    
 IEMINT=       0   IEFINT=       0                     IEDINT=       0
                                                       MORB  =       0
          EXTRAPOLATION IN EFFECT
          DIIS IN EFFECT
 ORBITAL PRINTING OPTION: NPREO=     1    23     2     1

     -------------------------------
     INTEGRAL TRANSFORMATION OPTIONS
     -------------------------------
     NWORD  =            0
     CUTOFF = 1.0E-09     MPTRAN =       0
     DIRTRF =       F     AOINTS =DUP     

          ----------------------
          INTEGRAL INPUT OPTIONS
          ----------------------
 NOPK  =       1 NORDER=       0 SCHWRZ=       F

     ------------------------------------------
     THE POINT GROUP IS CNV, NAXIS= 3, ORDER= 6
     ------------------------------------------

     DIMENSIONS OF THE SYMMETRY SUBSPACES ARE
 A1  =   11     A2  =    0     E   =    6

 ..... DONE SETTING UP THE RUN .....
 STEP CPU TIME =     0.00 TOTAL CPU TIME =        0.0 (    0.0 MIN)
 TOTAL WALL CLOCK TIME=        0.0 SECONDS, CPU UTILIZATION IS   0.00%

     ---------------------------------
     HESSIAN MATRIX CONTROL PARAMETERS
     ---------------------------------
     METHOD=ANALYTIC   NVIB  =       2   VIBSIZ= 0.01000
     RDHESS=       F   PURIFY=       F   PRTIFC=       F
     VIBANL=       T   DECOMP=       F   PROJCT=       F
     SCLFAC= 1.00000   PRTSCN=       F   NPRT  =       0
     PULCOR=       F   NPUN  =       0   REDOVB=       T
     THERMOCHEMISTRY WILL BE PRINTED FOR    1 TEMPERATURES:
      298.15000

     ------------------------------
     CPHF RESPONSE SOLUTION OPTIONS
     ------------------------------
     POLAR  =       F     NWORD  =       0
     CPHF   =AO      

          ********************
          1 ELECTRON INTEGRALS
          ********************
 ...... END OF ONE-ELECTRON INTEGRALS ......
 STEP CPU TIME =     0.00 TOTAL CPU TIME =        0.0 (    0.0 MIN)
 TOTAL WALL CLOCK TIME=        0.0 SECONDS, CPU UTILIZATION IS   0.00%

          -------------
          GUESS OPTIONS
          -------------
          GUESS =HUCKEL            NORB  =       0          NORDER=       0
          MIX   =       F          PRTMO =       F          PUNMO =       F
          TOLZ  = 1.0E-08          TOLE  = 1.0E-05
          SYMDEN=       F          PURIFY=       F

 INITIAL GUESS ORBITALS GENERATED BY HUCKEL   ROUTINE.
 HUCKEL GUESS REQUIRES      7663 WORDS.

 SYMMETRIES FOR INITIAL GUESS ORBITALS FOLLOW.   BOTH SET(S).
     5 ORBITALS ARE OCCUPIED (    1 CORE ORBITALS).
     2=A1       3=?E       4=?E       5=?A1      6=?A1      7=?E       8=?E  
     9=?A1     10=A1      11=A1      12=A1      13=A1      14=A1      15=A1  
 ...... END OF INITIAL ORBITAL SELECTION ......
 STEP CPU TIME =     0.00 TOTAL CPU TIME =        0.0 (    0.0 MIN)
 TOTAL WALL CLOCK TIME=        0.0 SECONDS, CPU UTILIZATION IS   0.00%

                    ----------------------
                    AO INTEGRAL TECHNOLOGY
                    ----------------------
     S,P,L SHELL ROTATED AXIS INTEGRALS, REPROGRAMMED BY
        KAZUYA ISHIMURA (IMS) AND JOSE SIERRA (SYNSTAR).
     S,P,D,L SHELL ROTATED AXIS INTEGRALS PROGRAMMED BY
        KAZUYA ISHIMURA (INSTITUTE FOR MOLECULAR SCIENCE).
     S,P,D,F,G SHELL TO TOTAL QUARTET ANGULAR MOMENTUM SUM 5,
        ERIC PROGRAM BY GRAHAM FLETCHER (ELORET AND NASA ADVANCED
        SUPERCOMPUTING DIVISION, AMES RESEARCH CENTER).
     S,P,D,F,G,L SHELL GENERAL RYS QUADRATURE PROGRAMMED BY
        MICHEL DUPUIS (PACIFIC NORTHWEST NATIONAL LABORATORY).

          --------------------
          2 ELECTRON INTEGRALS
          --------------------

 THE -PK- OPTION IS OFF, THE INTEGRALS ARE NOT IN SUPERMATRIX FORM.
 STORING   15000 INTEGRALS/RECORD ON DISK, USING 12 BYTES/INTEGRAL.
 TWO ELECTRON INTEGRAL EVALUATION REQUIRES   90474 WORDS OF MEMORY.
 II,JST,KST,LST =  1  1  1  1 NREC =         1 INTLOC =    1
 II,JST,KST,LST =  2  1  1  1 NREC =         1 INTLOC =    2
 II,JST,KST,LST =  3  1  1  1 NREC =         1 INTLOC =   34
 II,JST,KST,LST =  4  1  1  1 NREC =         1 INTLOC =  214
 II,JST,KST,LST =  5  1  1  1 NREC =         1 INTLOC = 1189
 II,JST,KST,LST =  6  1  1  1 NREC =         1 INTLOC = 1867
 II,JST,KST,LST =  7  1  1  1 NREC =         1 INTLOC = 2713
 II,JST,KST,LST =  8  1  1  1 NREC =         1 INTLOC = 2713
 II,JST,KST,LST =  9  1  1  1 NREC =         1 INTLOC = 2713
 II,JST,KST,LST = 10  1  1  1 NREC =         1 INTLOC = 2713
 II,JST,KST,LST = 11  1  1  1 NREC =         1 INTLOC = 2713
 II,JST,KST,LST = 12  1  1  1 NREC =         1 INTLOC = 4839
 TOTAL NUMBER OF NONZERO TWO-ELECTRON INTEGRALS =                8016
          1 INTEGRAL RECORDS WERE STORED ON DISK FILE  8.
  ...... END OF TWO-ELECTRON INTEGRALS .....
 STEP CPU TIME =     0.03 TOTAL CPU TIME =        0.0 (    0.0 MIN)
 TOTAL WALL CLOCK TIME=        0.0 SECONDS, CPU UTILIZATION IS  75.00%

          --------------------------
                 RHF SCF CALCULATION
          --------------------------

     NUCLEAR ENERGY =        13.5139400042
     MAXIT =   30     NPUNCH=    2
     EXTRAP=T  DAMP=F  SHIFT=F  RSTRCT=F  DIIS=T  DEM=F  SOSCF=F
     DENSITY MATRIX CONV=  1.00E-05
     MEMORY REQUIRED FOR RHF ITERS=     34690 WORDS.

 ITER EX DEM     TOTAL ENERGY        E CHANGE  DENSITY CHANGE    DIIS ERROR
          * * *   INITIATING DIIS PROCEDURE   * * *
   1  0  0      -40.1136115906   -40.1136115906   0.162857799   0.385240598
   2  1  0      -40.1903803175    -0.0767687270   0.045799631   0.057795601
   3  2  0      -40.1945138146    -0.0041334971   0.015959511   0.019226603
   4  3  0      -40.1951408635    -0.0006270488   0.004420602   0.003641655
   5  4  0      -40.1951717099    -0.0000308465   0.000341932   0.000217420
   6  5  0      -40.1951719169    -0.0000002070   0.000049418   0.000023655
   7  6  0      -40.1951719192    -0.0000000023   0.000004824   0.000002688
   8  7  0      -40.1951719193    -0.0000000000   0.000000083   0.000000115

          -----------------
          DENSITY CONVERGED
          -----------------
     TIME TO FORM FOCK OPERATORS=       0.0 SECONDS (       0.0 SEC/ITER)
     TIME TO SOLVE SCF EQUATIONS=       0.0 SECONDS (       0.0 SEC/ITER)

 FINAL RHF ENERGY IS      -40.1951719193 AFTER   8 ITERATIONS

          ------------
          EIGENVECTORS
          ------------

                      1          2          3          4          5
                  -11.2050    -0.9446    -0.5462    -0.5462    -0.5462
                     A1         A1         E          E          A1  
    1  C  1  S    0.995621  -0.194146  -0.000000  -0.000000   0.000002
    2  C  1  S    0.028507   0.358886  -0.000000  -0.000000  -0.000005
    3  C  1  X   -0.000000   0.000000   0.436129  -0.000000  -0.000000
    4  C  1  Y   -0.000000   0.000000  -0.000000   0.436129  -0.000000
    5  C  1  Z    0.000000   0.000003  -0.000000  -0.000000   0.436128
    6  C  1  S   -0.013353   0.362606  -0.000000  -0.000000  -0.000002
    7  C  1  X   -0.000000   0.000000   0.228743  -0.000000  -0.000000
    8  C  1  Y   -0.000000   0.000000  -0.000000   0.228743  -0.000000
    9  C  1  Z   -0.000000   0.000002  -0.000000  -0.000000   0.228746
   10  C  1 XX   -0.002076   0.010180   0.025440  -0.000000  -0.017989
   11  C  1 YY   -0.002076   0.010180  -0.025440  -0.000000  -0.017989
   12  C  1 ZZ   -0.002076   0.010179  -0.000000  -0.000000   0.035977
   13  C  1 XY   -0.000000   0.000000  -0.000000  -0.029375  -0.000000
   14  C  1 XZ   -0.000000   0.000000  -0.020770  -0.000000  -0.000000
   15  C  1 YZ   -0.000000   0.000000  -0.000000  -0.020770  -0.000000
   16  H  2  S    0.000043   0.134641  -0.000000  -0.000000   0.292119
   17  H  2  S    0.002479   0.037690  -0.000000  -0.000000   0.240771
   18  H  3  S    0.000043   0.134641  -0.137706   0.238515  -0.097372
   19  H  3  S    0.002479   0.037690  -0.113497   0.196583  -0.080257
   20  H  4  S    0.000043   0.134641  -0.137706  -0.238515  -0.097372
   21  H  4  S    0.002479   0.037690  -0.113497  -0.196583  -0.080257
   22  H  5  S    0.000043   0.134641   0.275413  -0.000000  -0.097372
   23  H  5  S    0.002479   0.037690   0.226994  -0.000000  -0.080257

                      6          7          8          9         10
                    0.2571     0.3278     0.3278     0.3278     0.7282
                     A1         A1         E          E          A1  
    1  C  1  S   -0.157030  -0.000001   0.000000  -0.000000   0.000001
    2  C  1  S    0.104587   0.000004   0.000000  -0.000000   0.000021
    3  C  1  X   -0.000000  -0.000000  -0.297006  -0.000000  -0.000000
    4  C  1  Y   -0.000000  -0.000000   0.000000   0.297006  -0.000000
    5  C  1  Z    0.000004  -0.297006   0.000000  -0.000000  -0.729104
    6  C  1  S    2.823735   0.000009   0.000000  -0.000000  -0.000034
    7  C  1  X   -0.000000  -0.000000  -1.505414  -0.000000  -0.000000
    8  C  1  Y   -0.000000  -0.000000   0.000000   1.505414  -0.000000
    9  C  1  Z    0.000037  -1.505365   0.000000  -0.000000   1.354843
   10  C  1 XX   -0.012689  -0.007564   0.010697  -0.000000   0.051158
   11  C  1 YY   -0.012689  -0.007564  -0.010697  -0.000000   0.051158
   12  C  1 ZZ   -0.012689   0.015128   0.000000  -0.000000  -0.102310
   13  C  1 XY   -0.000000  -0.000000   0.000000   0.012351  -0.000000
   14  C  1 XZ   -0.000000  -0.000000  -0.008733  -0.000000  -0.000000
   15  C  1 YZ   -0.000000  -0.000000   0.000000   0.008733  -0.000000
   16  H  2  S    0.005263   0.076391   0.000000  -0.000000  -0.539079
   17  H  2  S   -1.050272   2.022602   0.000000  -0.000000  -0.091401
   18  H  3  S    0.005261  -0.025467  -0.036008  -0.062368   0.179703
   19  H  3  S   -1.050260  -0.674199  -0.953488  -1.651490   0.030462
   20  H  4  S    0.005261  -0.025467  -0.036008   0.062368   0.179703
   21  H  4  S   -1.050260  -0.674199  -0.953488   1.651490   0.030462
   22  H  5  S    0.005261  -0.025467   0.072016  -0.000000   0.179703
   23  H  5  S   -1.050260  -0.674199   1.906976  -0.000000   0.030462

                     11         12         13         14         15
                    0.7282     0.7282     1.1844     1.1844     1.1844
                     E          E          A1         E          E   
    1  C  1  S    0.000000   0.000000   0.000009  -0.000000   0.000000
    2  C  1  S    0.000000   0.000000   0.000020  -0.000000   0.000000
    3  C  1  X   -0.729102   0.000000   0.000000   0.918440   0.000000
    4  C  1  Y    0.000000  -0.729102   0.000000  -0.000000  -0.918440
    5  C  1  Z    0.000000   0.000000   0.918432  -0.000000   0.000000
    6  C  1  S    0.000000   0.000000  -0.000120  -0.000000   0.000000
    7  C  1  X    1.354913   0.000000   0.000000  -1.204603   0.000000
    8  C  1  Y    0.000000   1.354913   0.000000  -0.000000   1.204603
    9  C  1  Z    0.000000   0.000000  -1.204594  -0.000000   0.000000
   10  C  1 XX   -0.072348   0.000000   0.109968  -0.155522   0.000000
   11  C  1 YY    0.072348   0.000000   0.109968   0.155522   0.000000
   12  C  1 ZZ    0.000000   0.000000  -0.219931  -0.000000   0.000000
   13  C  1 XY    0.000000   0.083540   0.000000  -0.000000  -0.179582
   14  C  1 XZ    0.059067   0.000000   0.000000   0.126975   0.000000
   15  C  1 YZ    0.000000   0.059067   0.000000  -0.000000  -0.126975
   16  H  2  S    0.000000   0.000000  -0.855184  -0.000000   0.000000
   17  H  2  S    0.000000   0.000000   1.591645  -0.000000   0.000000
   18  H  3  S    0.254128  -0.440162   0.285119   0.403160   0.698294
   19  H  3  S    0.043122  -0.074690  -0.530538  -0.750304  -1.299564
   20  H  4  S    0.254128   0.440162   0.285119   0.403160  -0.698294
   21  H  4  S    0.043122   0.074690  -0.530538  -0.750304   1.299564
   22  H  5  S   -0.508255   0.000000   0.285119  -0.806320   0.000000
   23  H  5  S   -0.086245   0.000000  -0.530538   1.500607   0.000000

                     16         17         18         19         20
                    1.2517     1.3149     1.9409     1.9409     2.5918
                     A1         A1         E          E          E   
    1  C  1  S    0.077439  -0.124700  -0.000000  -0.000000   0.000000
    2  C  1  S   -1.202516  -1.820849  -0.000000  -0.000000   0.000000
    3  C  1  X   -0.000000   0.000000   0.000000  -0.000000  -0.180793
    4  C  1  Y   -0.000000   0.000000  -0.000000   0.000000   0.000000
    5  C  1  Z   -0.000047   0.000020  -0.000000  -0.000000   0.000000
    6  C  1  S    2.114906   5.186649  -0.000000  -0.000000   0.000000
    7  C  1  X   -0.000000   0.000000   0.000001  -0.000000  -0.412997
    8  C  1  Y   -0.000000   0.000000  -0.000000   0.000001   0.000000
    9  C  1  Z    0.000042   0.000058  -0.000000  -0.000000   0.000000
   10  C  1 XX   -0.065262  -0.126220   0.499978  -0.000000  -0.800978
   11  C  1 YY   -0.065262  -0.126220  -0.499978  -0.000000   0.800978
   12  C  1 ZZ   -0.065251  -0.126241  -0.000000  -0.000000   0.000000
   13  C  1 XY   -0.000000   0.000000  -0.000000  -0.577325   0.000000
   14  C  1 XZ   -0.000000   0.000000   0.816514  -0.000000   0.653952
   15  C  1 YZ   -0.000000   0.000000  -0.000000   0.816514   0.000000
   16  H  2  S    0.581802  -0.420702  -0.000000  -0.000000   0.000000
   17  H  2  S   -0.697886  -0.916438  -0.000000  -0.000000   0.000000
   18  H  3  S    0.581743  -0.420626   0.000001  -0.000002  -0.402468
   19  H  3  S   -0.697816  -0.916479  -0.000000   0.000000   0.050005
   20  H  4  S    0.581743  -0.420626   0.000001   0.000002  -0.402468
   21  H  4  S   -0.697816  -0.916479  -0.000000  -0.000000   0.050005
   22  H  5  S    0.581743  -0.420626  -0.000002  -0.000000   0.804936
   23  H  5  S   -0.697816  -0.916479   0.000000  -0.000000  -0.100009

                     21         22         23
                    2.5918     2.5918     4.6119
                     E          A1         A1  
    1  C  1  S    0.000000   0.000001  -0.485609
    2  C  1  S    0.000000  -0.000015   2.967885
    3  C  1  X    0.000000   0.000000   0.000000
    4  C  1  Y   -0.180793   0.000000   0.000000
    5  C  1  Z    0.000000   0.180786  -0.000003
    6  C  1  S    0.000000   0.000010   2.409403
    7  C  1  X    0.000000   0.000000   0.000000
    8  C  1  Y   -0.412997   0.000000   0.000000
    9  C  1  Z    0.000000   0.412960   0.000024
   10  C  1 XX    0.000000  -0.566363  -1.880873
   11  C  1 YY    0.000000  -0.566363  -1.880873
   12  C  1 ZZ    0.000000   1.132733  -1.880864
   13  C  1 XY    0.924889   0.000000   0.000000
   14  C  1 XZ    0.000000   0.000000   0.000000
   15  C  1 YZ    0.653952   0.000000   0.000000
   16  H  2  S    0.000000  -0.853749   0.131509
   17  H  2  S    0.000000   0.106101  -0.488566
   18  H  3  S    0.697095   0.284596   0.131520
   19  H  3  S   -0.086611  -0.035376  -0.488563
   20  H  4  S   -0.697095   0.284596   0.131520
   21  H  4  S    0.086611  -0.035376  -0.488563
   22  H  5  S    0.000000   0.284596   0.131520
   23  H  5  S    0.000000  -0.035376  -0.488563
 ...... END OF RHF CALCULATION ......
 STEP CPU TIME =     0.01 TOTAL CPU TIME =        0.0 (    0.0 MIN)
 TOTAL WALL CLOCK TIME=        0.1 SECONDS, CPU UTILIZATION IS  80.00%

     ----------------------------------------------------------------
     PROPERTY VALUES FOR THE RHF   SELF-CONSISTENT FIELD WAVEFUNCTION
     ----------------------------------------------------------------

          -----------------
          ENERGY COMPONENTS
          -----------------

         WAVEFUNCTION NORMALIZATION =       1.0000000000

                ONE ELECTRON ENERGY =     -79.8420981185
                TWO ELECTRON ENERGY =      26.1329861950
           NUCLEAR REPULSION ENERGY =      13.5139400042
                                      ------------------
                       TOTAL ENERGY =     -40.1951719193

 ELECTRON-ELECTRON POTENTIAL ENERGY =      26.1329861950
  NUCLEUS-ELECTRON POTENTIAL ENERGY =    -120.0248405283
   NUCLEUS-NUCLEUS POTENTIAL ENERGY =      13.5139400042
                                      ------------------
             TOTAL POTENTIAL ENERGY =     -80.3779143291
               TOTAL KINETIC ENERGY =      40.1827424099
                 VIRIAL RATIO (V/T) =       2.0003093246

          ---------------------------------------
          MULLIKEN AND LOWDIN POPULATION ANALYSES
          ---------------------------------------

     ATOMIC MULLIKEN POPULATION IN EACH MOLECULAR ORBITAL

                      1          2          3          4          5

                  2.000000   2.000000   2.000000   2.000000   2.000000

    1             1.998006   1.347507   1.104992   1.104992   1.104991
    2             0.000498   0.163123   0.000000   0.000000   0.671260
    3             0.000498   0.163123   0.149168   0.447504   0.074583
    4             0.000498   0.163123   0.149168   0.447504   0.074583
    5             0.000498   0.163123   0.596672   0.000000   0.074583

               ----- POPULATIONS IN EACH AO -----
                             MULLIKEN      LOWDIN
              1  C  1  S      1.99642     1.98240
              2  C  1  S      0.62669     0.35232
              3  C  1  X      0.69539     0.62923
              4  C  1  Y      0.69539     0.62963
              5  C  1  Z      0.69539     0.62903
              6  C  1  S      0.68273     0.35297
              7  C  1  X      0.39559     0.51713
              8  C  1  Y      0.39559     0.51792
              9  C  1  Z      0.39560     0.51673
             10  C  1 XX      0.02023     0.15641
             11  C  1 YY      0.02023     0.15641
             12  C  1 ZZ      0.02256     0.15930
             13  C  1 XY      0.00934     0.01368
             14  C  1 XZ      0.00467     0.00680
             15  C  1 YZ      0.00467     0.00684
             16  H  2  S      0.52354     0.48684
             17  H  2  S      0.31134     0.35807
             18  H  3  S      0.52355     0.48439
             19  H  3  S      0.31133     0.35784
             20  H  4  S      0.52355     0.48439
             21  H  4  S      0.31133     0.35784
             22  H  5  S      0.52355     0.48586
             23  H  5  S      0.31133     0.35797

          ----- MULLIKEN ATOMIC OVERLAP POPULATIONS -----
          (OFF-DIAGONAL ELEMENTS NEED TO BE MULTIPLIED BY 2)

             1           2           3           4           5

    1    5.1051867
    2    0.3888247   0.5242812
    3    0.3888255  -0.0260749   0.5242707
    4    0.3888255  -0.0260749  -0.0260721   0.5242707
    5    0.3888255  -0.0260749  -0.0260721  -0.0260721   0.5242707

          TOTAL MULLIKEN AND LOWDIN ATOMIC POPULATIONS
       ATOM         MULL.POP.    CHARGE          LOW.POP.     CHARGE
    1 C             6.660488   -0.660488         6.626794   -0.626794
    2 H             0.834881    0.165119         0.844908    0.155092
    3 H             0.834877    0.165123         0.842230    0.157770
    4 H             0.834877    0.165123         0.842230    0.157770
    5 H             0.834877    0.165123         0.843838    0.156162

          -------------------------------
          BOND ORDER AND VALENCE ANALYSIS     BOND ORDER THRESHOLD=0.050
          -------------------------------

                   BOND                       BOND                       BOND
  ATOM PAIR DIST  ORDER      ATOM PAIR DIST  ORDER      ATOM PAIR DIST  ORDER
    1   2  1.084  0.962        1   3  1.084  0.962        1   4  1.084  0.962
    1   5  1.084  0.962

                       TOTAL       BONDED        FREE
      ATOM            VALENCE     VALENCE     VALENCE
    1 C                 3.848       3.848      -0.000
    2 H                 0.934       0.934      -0.000
    3 H                 0.934       0.934       0.000
    4 H                 0.934       0.934       0.000
    5 H                 0.934       0.934       0.000

          ---------------------
          ELECTROSTATIC MOMENTS
          ---------------------

 POINT   1           X           Y           Z (BOHR)    CHARGE
                -0.000000    0.000000    0.000000        0.00 (A.U.)
         DX          DY          DZ         /D/  (DEBYE)
    -0.000000    0.000000    0.000015    0.000015
 ...... END OF PROPERTY EVALUATION ......
 STEP CPU TIME =     0.00 TOTAL CPU TIME =        0.0 (    0.0 MIN)
 TOTAL WALL CLOCK TIME=        0.1 SECONDS, CPU UTILIZATION IS  80.00%

 REGENERATING AO INTEGRAL LIST IN C1 POINT GROUP FOR AO-DRIVEN CPHF

          --------------------
          2 ELECTRON INTEGRALS
          --------------------

 THE -PK- OPTION IS OFF, THE INTEGRALS ARE NOT IN SUPERMATRIX FORM.
 STORING   15000 INTEGRALS/RECORD ON DISK, USING 12 BYTES/INTEGRAL.
 TWO ELECTRON INTEGRAL EVALUATION REQUIRES   90474 WORDS OF MEMORY.
 II,JST,KST,LST =  1  1  1  1 NREC =         1 INTLOC =    1
 II,JST,KST,LST =  2  1  1  1 NREC =         1 INTLOC =    2
 II,JST,KST,LST =  3  1  1  1 NREC =         1 INTLOC =   34
 II,JST,KST,LST =  4  1  1  1 NREC =         1 INTLOC =  214
 II,JST,KST,LST =  5  1  1  1 NREC =         1 INTLOC = 1189
 II,JST,KST,LST =  6  1  1  1 NREC =         1 INTLOC = 1867
 II,JST,KST,LST =  7  1  1  1 NREC =         1 INTLOC = 2713
 II,JST,KST,LST =  8  1  1  1 NREC =         1 INTLOC = 5638
 II,JST,KST,LST =  9  1  1  1 NREC =         1 INTLOC = 9077
 II,JST,KST,LST = 10  1  1  1 NREC =         1 INTLOC =13035
 II,JST,KST,LST = 11  1  1  1 NREC =         2 INTLOC = 2624
 II,JST,KST,LST = 12  1  1  1 NREC =         2 INTLOC = 6763
 TOTAL NUMBER OF NONZERO TWO-ELECTRON INTEGRALS =               26489
          2 INTEGRAL RECORDS WERE STORED ON DISK FILE  8.
  ...... END OF TWO-ELECTRON INTEGRALS .....
 STEP CPU TIME =     0.01 TOTAL CPU TIME =        0.1 (    0.0 MIN)
 TOTAL WALL CLOCK TIME=        0.1 SECONDS, CPU UTILIZATION IS  83.33%

     ---------------------------------------------
     1ST AND 2ND INTEGRAL DERIVATIVE CONTRIBUTIONS
     ---------------------------------------------
 ...... END OF 1-ELECTRON GRAD+HESS+FOCKDER ......
 STEP CPU TIME =     0.01 TOTAL CPU TIME =        0.1 (    0.0 MIN)
 TOTAL WALL CLOCK TIME=        0.1 SECONDS, CPU UTILIZATION IS  85.71%

     ----------------------------------------------
     TWO ELECTRON INTEGRAL DERIVATIVE CONTRIBUTIONS
     ----------------------------------------------

      14004 WORDS REQUIRED,   1000000 WORDS AVAILABLE
 THE COARSE/FINE SCHWARZ SCREENINGS SKIPPED          0/         0 BLOCKS.
 THE NUMBER OF DERIVATIVE INTEGRAL BLOCKS COMPUTED WAS       904
 STEP CPU TIME =     0.13 TOTAL CPU TIME =        0.2 (    0.0 MIN)
 TOTAL WALL CLOCK TIME=        0.2 SECONDS, CPU UTILIZATION IS 100.00%
 ...... END OF 2-ELECTRON GRAD+HESS+FOCKDER ......
 STEP CPU TIME =     0.00 TOTAL CPU TIME =        0.2 (    0.0 MIN)
 TOTAL WALL CLOCK TIME=        0.2 SECONDS, CPU UTILIZATION IS 100.00%

     -------------------------------------------
     COUPLED-PERTURBED CLOSED SHELL HARTREE-FOCK
     -------------------------------------------
 THE CPHF HAS      90 INDEPENDENT ORBITAL ROTATIONS.
 SOLVING FOR    9 NUCLEAR RESPONSES AND 0 ELECTRIC FIELD RESPONSES
           -FA- WILL USE      3129 WORDS,
           -TA- WILL USE      9797 WORDS,
          -FCK- WILL USE     42220 WORDS,
 -WXY- AND -YA- WILL USE     42120 WORDS,
               THERE ARE   1000000 WORDS OF REPLICATED MEMORY AVAILABLE.
        TIME FOR -FA-   =        0.000
        TIME FOR -TA-   =        0.000
        TIME FOR -FCK-  =        0.000
 PRECONDITIONED CONJUGATE GRADIENT SOLVER     CONV. TOLERANCE=5.00E-05
 ITER    RESPONSE ERROR        IMPROVED
   1       3.07108E-01             9
   2       1.14219E-01             9
   3       1.32350E-02             9
   4       1.70699E-03             9
   5       2.16793E-04             9
   6       2.33471E-05             6
 THE CPHF HAS CONVERGED AFTER  6 ITERATIONS.
 IT REQUIRED    51 FOCK-LIKE BUILDS TO FIND THE   9 SYMMETRY UNIQUE RESPONSES.
        TIME FOR -YA-   =        0.030
 ...... DONE WITH CPHF CONTRIBUTIONS ......
 STEP CPU TIME =     0.03 TOTAL CPU TIME =        0.2 (    0.0 MIN)
 TOTAL WALL CLOCK TIME=        0.2 SECONDS, CPU UTILIZATION IS 100.00%

          ---------------
          ENERGY GRADIENT
          ---------------

 UNITS ARE HARTREE/BOHR    E'X               E'Y               E'Z 
    1 C                0.000000000       0.000000000      -0.000011675
    2 H               -0.000000000      -0.000000000       0.000006754
    3 H               -0.000002382       0.000004125       0.000001640
    4 H               -0.000002382      -0.000004125       0.000001640
    5 H                0.000004763       0.000000000       0.000001640

          -------------------------------
          CARTESIAN FORCE CONSTANT MATRIX
          -------------------------------

                                   1                          2
                               C                          H         
                          X        Y        Z        X        Y        Z
  1   C            X 0.622273 0.000000 0.000000-0.057574-0.000000-0.000000
                   Y-0.000000 0.622273 0.000000 0.000000-0.057574-0.000000
                   Z 0.000000 0.000000 0.622233 0.000000 0.000000-0.351536
  2   H            X-0.057574-0.000000 0.000000 0.054086-0.000000 0.000000
                   Y 0.000000-0.057574 0.000000 0.000000 0.054086 0.000000
                   Z 0.000000-0.000000-0.351536 0.000000 0.000000 0.380527
  3   H            X-0.122903 0.113154-0.046192-0.000017-0.002044 0.000060
                   Y 0.113154-0.253562 0.080007-0.002044 0.002343-0.000104
                   Z-0.046192 0.080007-0.090232-0.018710 0.032407-0.009664
  4   H            X-0.122903-0.113154-0.046192-0.000017 0.002044 0.000060
                   Y-0.113154-0.253562-0.080007 0.002044 0.002343 0.000104
                   Z-0.046192-0.080007-0.090232-0.018710-0.032407-0.009664
  5   H            X-0.318892 0.000000 0.092385 0.003523 0.000000-0.000120
                   Y 0.000000-0.057574 0.000000 0.000000-0.001197 0.000000
                   Z 0.092384 0.000000-0.090232 0.037420 0.000000-0.009664

                                   3                          4
                               H                          H         
                          X        Y        Z        X        Y        Z
  3   H            X 0.126631-0.125655 0.051296 0.010741-0.015326 0.008442
                   Y-0.125655 0.271725-0.088847 0.015326-0.022850 0.010837
                   Z 0.051296-0.088847 0.090353 0.008442-0.010837 0.004772
  4   H            X 0.010741 0.015326 0.008442 0.126631 0.125655 0.051296
                   Y-0.015326-0.022850-0.010837 0.125655 0.271725 0.088847
                   Z 0.008442 0.010837 0.004772 0.051296 0.088847 0.090353
  5   H            X-0.014452-0.000780 0.005164-0.014452 0.000780 0.005164
                   Y 0.029871 0.002344-0.012729-0.029871 0.002344 0.012729
                   Z-0.013606-0.001893 0.004772-0.013606 0.001893 0.004772

                                   5
                               H         
                          X        Y        Z
  5   H            X 0.344272 0.000000-0.102592
                   Y 0.000000 0.054084 0.000000
                   Z-0.102592 0.000000 0.090353

          ------------------------          ----------------
          DIPOLE DERIVATIVE TENSOR          (DEBYE/ANGSTROM)
          ------------------------          ----------------

        ATOM                 MU-X           MU-Y           MU-Z
     C          D/DX     0.350366816    0.000000000    0.000000000
                D/DY     0.000000000    0.350366816    0.000000000
                D/DZ     0.000000000    0.000000000    0.350360629
     H          D/DX     0.292197075    0.000000000    0.000000000
                D/DY     0.000000000    0.292197075    0.000000000
                D/DZ     0.000000000    0.000000000   -0.847228422
     H          D/DX     0.039001787    0.438521290   -0.179031997
                D/DY     0.438521290   -0.467358982    0.310092516
                D/DZ    -0.179026904    0.310083693    0.165624008
     H          D/DX     0.039001787   -0.438521290   -0.179031997
                D/DY    -0.438521290   -0.467358982   -0.310092516
                D/DZ    -0.179026904   -0.310083693    0.165624008
     H          D/DX    -0.720539366    0.000000000    0.358063995
                D/DY     0.000000000    0.292182172    0.000000000
                D/DZ     0.358053807    0.000000000    0.165624008

          --------------------------------------------------------
          NORMAL COORDINATE ANALYSIS IN THE HARMONIC APPROXIMATION
          --------------------------------------------------------

          ATOMIC WEIGHTS (AMU)

    1     C                12.00000
    2     H                 1.00782
    3     H                 1.00782
    4     H                 1.00782
    5     H                 1.00782

 MODES 1 TO 6 ARE TAKEN AS ROTATIONS AND TRANSLATIONS.

 ANALYZING SYMMETRY OF NORMAL MODES...
 WATCH OUT!! THE COUNTING OF DEGENERATE MODES COUNTS INDIVIDUAL MODES,
 E.G. 2*E MEANS ONE (1) SET OF DEGENERATE E MODES

 --- SYMMETRY FOR NORMAL MODES ---
 INCLUDING TRANSLATION AND ROTATION
    4*A1     1*A2    10*E   
 EXCLUDING TRANSLATION AND ROTATION (SAYVETZ < 0.01)
    3*A1     0*A2     6*E   

     FREQUENCIES IN CM**-1, IR INTENSITIES IN DEBYE**2/AMU-ANGSTROM**2,
     REDUCED MASSES IN AMU.

                          1           2           3           4           5
       FREQUENCY:         0.13        0.13        0.00        7.74        7.74  
        SYMMETRY:         E           E           A1          E           E   
    REDUCED MASS:      3.20421     3.20421     3.20626     1.00803     1.00803
    IR INTENSITY:      0.00000     0.00000     0.00000     0.00000     0.00000

  1   C            X  0.20136058 -0.14769434  0.00000000 -0.00411809  0.00112920
                   Y  0.14769434  0.20136058  0.00000000 -0.00112920 -0.00411809
                   Z -0.00000000 -0.00000000  0.24975580  0.00000000 -0.00000000
  2   H            X  0.20976910 -0.15386184  0.00000000  0.58406650 -0.16015397
                   Y  0.15386184  0.20976910  0.00000000  0.16015397  0.58406650
                   Z -0.00000000 -0.00000000  0.24975606  0.00000000 -0.00000000
  3   H            X  0.19855798 -0.14563883  0.00000003 -0.20018034  0.05488608
                   Y  0.14563872  0.19855822 -0.00000005 -0.05489293 -0.20017341
                   Z -0.00107194 -0.00977297  0.24975587  0.14558869 -0.55629169
  4   H            X  0.19855812 -0.14563865  0.00000003 -0.20017811  0.05489422
                   Y  0.14563891  0.19855809  0.00000006 -0.05488479 -0.20017564
                   Z  0.00899960  0.00395816  0.24975587  0.40896839  0.40422935
  5   H            X  0.19855821 -0.14563885 -0.00000006 -0.20017218  0.05488822
                   Y  0.14563870  0.19855800  0.00000000 -0.05489080 -0.20018158
                   Z -0.00792767  0.00581480  0.24975587 -0.55455708  0.15206234

 TRANS. SAYVETZ    X  3.22807295 -2.36773312  0.00000005 -0.06601007  0.01810029
                   Y  2.36773312  3.22807295  0.00000006 -0.01810029 -0.06601007
                   Z -0.00000008 -0.00000002  4.00391059  0.00000000 -0.00000000
               TOTAL  4.00332550  4.00332550  4.00391059  0.06844670  0.06844670

   ROT. SAYVETZ    X -0.03394291 -0.04627642 -0.00000000 -0.88764400 -3.23715429
                   Y  0.04627642 -0.03394291  0.00000000  3.23715429 -0.88764400
                   Z -0.00000000 -0.00000000  0.00000000  0.00000000  0.00000000
               TOTAL  0.05739014  0.05739014  0.00000000  3.35664711  3.35664711

                          6           7           8           9          10
       FREQUENCY:         7.84     1487.94     1487.96     1487.96     1702.60  
        SYMMETRY:         A2          A1          E           E           E   
    REDUCED MASS:      1.00783     1.17815     1.17814     1.17814     1.00783
    IR INTENSITY:      0.00000     0.24326     0.24323     0.24323     0.00000

  1   C            X -0.00000000 -0.00000000  0.02037700 -0.11285538 -0.00000417
                   Y  0.00000000  0.00000000 -0.11285538 -0.02037700  0.00000068
                   Z -0.00000000 -0.11468174 -0.00000000  0.00000000  0.00000000
  2   H            X -0.00000000  0.00000000 -0.09884045  0.54741494  0.49161939
                   Y -0.00000000 -0.00000000  0.54741494  0.09884045 -0.07997935
                   Z -0.00000000 -0.08845496 -0.00000000  0.00000000 -0.00000000
  3   H            X -0.49805516 -0.10130669  0.17083909  0.45054624 -0.28154144
                   Y -0.28755228  0.17546834  0.08034275  0.26669564 -0.28380732
                   Z  0.00000000  0.48465021  0.19066515 -0.06851226 -0.29704339
  4   H            X  0.49805516 -0.10130669 -0.31761477  0.36235172 -0.37388413
                   Y -0.28755228 -0.17546834  0.16853727 -0.22175822  0.28380741
                   Z -0.00000000  0.48465021 -0.15466593 -0.13086474 -0.16644254
  5   H            X  0.00000000  0.20261338  0.00299086 -0.01656448  0.16385598
                   Y  0.57510456 -0.00000000  0.54745346  0.09884740  0.07997116
                   Z  0.00000000  0.48465021 -0.03599922  0.19937699  0.46348593

 TRANS. SAYVETZ    X -0.00000000 -0.00000000  0.00000024 -0.00000132  0.00000019
                   Y  0.00000000 -0.00000000 -0.00000132 -0.00000024 -0.00000003
                   Z -0.00000000 -0.00000023 -0.00000000  0.00000000  0.00000000
               TOTAL  0.00000000  0.00000023  0.00000134  0.00000134  0.00000019

   ROT. SAYVETZ    X  0.00000000  0.00000000 -0.00005490 -0.00000991 -0.00000165
                   Y -0.00000000 -0.00000000 -0.00000991  0.00005490 -0.00001017
                   Z  3.35717035 -0.00000000  0.00000000  0.00000000  0.00000000
               TOTAL  3.35717035  0.00000000  0.00005578  0.00005578  0.00001030

                         11          12          13          14          15
       FREQUENCY:      1702.60     3197.17     3301.65     3301.71     3301.71  
        SYMMETRY:         E           A1          A1          E           E   
    REDUCED MASS:      1.00783     1.00783     1.10238     1.10239     1.10239
    IR INTENSITY:      0.00000     0.00000     0.94249     0.94231     0.94231

  1   C            X -0.00000068  0.00000000 -0.00000000  0.01292395 -0.08738885
                   Y -0.00000417 -0.00000000  0.00000000 -0.08738885 -0.01292395
                   Z -0.00000000 -0.00001955 -0.08833727 -0.00000000  0.00000000
  2   H            X  0.07997935  0.00000000 -0.00000000  0.00234708 -0.01587042
                   Y  0.49161939 -0.00000000  0.00000000 -0.01587042 -0.00234708
                   Z -0.00000000  0.49822061  0.82085907  0.00000000 -0.00000000
  3   H            X -0.33712148 -0.23476016  0.13157102 -0.34356186  0.12099906
                   Y -0.04617162  0.40661653 -0.22788769  0.58326281 -0.23940849
                   Z  0.36368937 -0.16599595  0.07698554 -0.24458145  0.09677492
  4   H            X  0.23049324 -0.23476016  0.13157102  0.29383198  0.21526331
                   Y  0.04617107 -0.40661653  0.22788769  0.48899856  0.39798535
                   Z -0.43909181 -0.16599595  0.07698554  0.20610027  0.16342629
  5   H            X  0.02665699  0.46952033 -0.26314204 -0.10650017  0.72013044
                   Y -0.49156904  0.00000000  0.00000000 -0.01586857 -0.00234680
                   Z  0.07540244 -0.16599595  0.07698554  0.03848119 -0.26020121

 TRANS. SAYVETZ    X  0.00000003 -0.00000000 -0.00000000  0.00000025 -0.00000169
                   Y  0.00000019 -0.00000000  0.00000000 -0.00000169 -0.00000025
                   Z  0.00000000 -0.00000004 -0.00000114 -0.00000000  0.00000000
               TOTAL  0.00000019  0.00000004  0.00000114  0.00000171  0.00000171

   ROT. SAYVETZ    X  0.00001017 -0.00000000  0.00000000 -0.00000810 -0.00000120
                   Y -0.00000165  0.00000000  0.00000000 -0.00000120  0.00000810
                   Z -0.00000000  0.00000000 -0.00000000  0.00000000 -0.00000000
               TOTAL  0.00001030  0.00000000  0.00000000  0.00000819  0.00000819

 REFERENCE ON SAYVETZ CONDITIONS - A. SAYVETZ, J.CHEM.PHYS., 7, 383-389(1939).

 NOTE - THE MODES J,K ARE ORTHONORMALIZED ACCORDING TO
 SUM ON I   M(I) * (X(I,J)*X(I,K) + Y(I,J)*Y(I,K) + Z(I,J)*Z(I,K)) = DELTA(J,K)

     -------------------------------
     THERMOCHEMISTRY AT T=  298.15 K
     -------------------------------

 USING IDEAL GAS, RIGID ROTOR, HARMONIC NORMAL MODE APPROXIMATIONS.
 P=  1.01325E+05 PASCAL.
 ALL FREQUENCIES ARE SCALED BY   1.00000
 THE MOMENTS OF INERTIA ARE (IN AMU*BOHR**2)
     11.27037    11.27037    11.27059
 THE ROTATIONAL SYMMETRY NUMBER IS  3.0
 THE ROTATIONAL CONSTANTS ARE (IN GHZ)
    159.98478   159.98478   159.98167
 THE HARMONIC ZERO POINT ENERGY IS (SCALED BY   1.000)
        0.047776 HARTREE/MOLECULE    10485.648209 CM**-1/MOLECULE 
       29.980003 KCAL/MOL              125.436331 KJ/MOL

               Q               LN Q
 ELEC.     1.00000E+00       0.000000
 TRANS.    2.52294E+06      14.740935
 ROT.      1.42768E+02       4.961223
 VIB.      1.00283E+00       0.002826
 TOT.      3.61215E+08      19.704984

              E         H         G         CV        CP        S
           KJ/MOL    KJ/MOL    KJ/MOL   J/MOL-K   J/MOL-K   J/MOL-K
 ELEC.      0.000     0.000     0.000     0.000     0.000     0.000
 TRANS.     3.718     6.197   -36.542    12.472    20.786   143.348
 ROT.       3.718     3.718   -12.299    12.472    12.472    53.721
 VIB.     125.488   125.488   125.429     1.285     1.285     0.197
 TOTAL    132.925   135.404    76.589    26.228    34.543   197.266
 VIB. THERMAL CORRECTION E(T)-E(0) = H(T)-H(0) =    51.718 J/MOL

              E         H         G         CV        CP        S
         KCAL/MOL  KCAL/MOL  KCAL/MOL CAL/MOL-K CAL/MOL-K CAL/MOL-K
 ELEC.      0.000     0.000     0.000     0.000     0.000     0.000
 TRANS.     0.889     1.481    -8.734     2.981     4.968    34.261
 ROT.       0.889     0.889    -2.939     2.981     2.981    12.840
 VIB.      29.992    29.992    29.978     0.307     0.307     0.047
 TOTAL     31.770    32.362    18.305     6.269     8.256    47.148
 VIB. THERMAL CORRECTION E(T)-E(0) = H(T)-H(0) =    12.361 CAL/MOL
 ......END OF NORMAL COORDINATE ANALYSIS......
 STEP CPU TIME =     0.00 TOTAL CPU TIME =        0.2 (    0.0 MIN)
 TOTAL WALL CLOCK TIME=        0.2 SECONDS, CPU UTILIZATION IS  95.65%
      580000  WORDS OF DYNAMIC MEMORY USED
 EXECUTION OF GAMESS TERMINATED NORMALLY Mon Oct  3 15:38:06 2011
 DDI: 263224 bytes (0.3 MB / 0 MWords) used by master data server.

 ----------------------------------------
 CPU timing information for all processes
 ========================================
 0: 0.204 + 0.20 = 0.224
 ----------------------------------------
 ddikick.x: exited gracefully.
unset echo
----- accounting info -----
Files used on the master node idhi were:
-rw-r--r-- 1 koushik koushik     303 2011-10-03 15:38 /home/koushik/Desktop/gamess/methanenm.F05
-rw-r--r-- 1 koushik koushik  360024 2011-10-03 15:38 /home/koushik/Desktop/gamess/methanenm.F08
-rw-r--r-- 1 koushik koushik 1177920 2011-10-03 15:38 /home/koushik/Desktop/gamess/methanenm.F10
-rw-r--r-- 1 koushik koushik   33240 2011-10-03 15:38 /home/koushik/Desktop/gamess/methanenm.F18
Mon Oct  3 15:38:09 IST 2011
0.0u 0.0s 0:03.31 3.6% 0+0k 0+24io 0pf+0w
